version 2
run Wireless01-35-20200703-11:26:50-4315
attr configname Wireless01
attr datetime 20200703-11:26:50
attr experiment Wireless01
attr inifile omnetpp.ini
attr iterationvars $name=Wireless_6_1m
attr iterationvarsf name=Wireless#_6#_1m-
attr measurement $name=Wireless_6_1m
attr network "${name=Wireless_3_1m,Wireless_3_5m, Wireless_3_10m, Wireless_6_1m, Wireless_6_5m, Wireless_6_10m, Wireless_12_1m, Wireless_12_5m, Wireless_12_10m }"
attr processid 4315
attr repetition 5
attr replication #5
attr resultdir results
attr runnumber 35
attr seedset 35
itervar name Wireless_6_1m
param *.hostA.numApps 1
param *.hostA.app[0].typename "\"TDOAApp\""
param *.hostA.app[0].destAddresses "\"Broadcast\""
param *.hostA.app[0].destPort 5000
param *.hostA.app[0].localPort 6000
param *.hostA.app[0].isReceiver false
param *.hostA.app[0].Nome_arquivo "\"Wireless_6_1m.csv\""
param *.host*.numApps 1
param *.host*.app[0].typename "\"TDOAApp\""
param *.host*.app[0].localPort 5000
param *.host*.app[0].destPort 6000
param *.host*.app[0].destAddresses "\"hostA\""
param *.host*.app[0].isReceiver true
param *.host*.wlan[0].typename "\"WirelessInterface\""
param *.radioMedium.typename "\"ApskScalarRadioMedium\""
param *.radioMedium.backgroundNoise.power -90dBm
param *.radioMedium.mediumLimitCache.centerFrequency 2GHz
param *.host*.wlan[0].radio.typename "\"ApskScalarRadio\""
param *.host*.wlan[0].radio.centerFrequency 2GHz
param *.host*.wlan[0].radio.bandwidth 2MHz
param *.host*.wlan[0].radio.transmitter.power 1.4mW
param *.host*.wlan[0].radio.transmitter.preambleDuration 10us
param *.host*.wlan[0].radio.transmitter.headerLength 8B
param *.host*.wlan[0].radio.receiver.sensitivity -85dBm
param *.host*.wlan[0].radio.receiver.energyDetection -85dBm
param *.host*.wlan[0].radio.receiver.snirThreshold 4dB
param *.host*.wlan[0].mac.typename "\"CsmaCaMac\""
param *.host*.wlan[0].mac.ackTimeout 300us
param *.host*.wlan[0].mac.useAck true
param *.host*.wlan[0].mac.fullDuplex false
param *.host*.wlan[0].radio.receiver.ignoreInterference true
param *.host*.wlan[0].mac.headerLength 23B
param *.host*.**.bitrate 1Mbps
param *.host*.ipv4.arp.typename "\"GlobalArp\""
param **.ip.limitedBroadcast true

vector 0 Wireless_6_1m.hostA.wlan[0].radio radioMode:vector ETV
attr interpolationmode sample-hold
attr source radioModeChanged
attr title "Radio mode, vector"
vector 1 Wireless_6_1m.hostB.wlan[0].radio radioMode:vector ETV
attr interpolationmode sample-hold
attr source radioModeChanged
attr title "Radio mode, vector"
vector 2 Wireless_6_1m.hostC.wlan[0].radio radioMode:vector ETV
attr interpolationmode sample-hold
attr source radioModeChanged
attr title "Radio mode, vector"
vector 3 Wireless_6_1m.hostD.wlan[0].radio radioMode:vector ETV
attr interpolationmode sample-hold
attr source radioModeChanged
attr title "Radio mode, vector"
vector 4 Wireless_6_1m.hostE.wlan[0].radio radioMode:vector ETV
attr interpolationmode sample-hold
attr source radioModeChanged
attr title "Radio mode, vector"
vector 5 Wireless_6_1m.hostF.wlan[0].radio radioMode:vector ETV
attr interpolationmode sample-hold
attr source radioModeChanged
attr title "Radio mode, vector"
vector 6 Wireless_6_1m.hostG.wlan[0].radio radioMode:vector ETV
attr interpolationmode sample-hold
attr source radioModeChanged
attr title "Radio mode, vector"
vector 7 Wireless_6_1m.hostA.wlan[0].radio receptionState:vector ETV
attr interpolationmode sample-hold
attr source receptionStateChanged
attr title "Radio reception state, vector"
vector 8 Wireless_6_1m.hostB.wlan[0].radio receptionState:vector ETV
attr interpolationmode sample-hold
attr source receptionStateChanged
attr title "Radio reception state, vector"
vector 9 Wireless_6_1m.hostC.wlan[0].radio receptionState:vector ETV
attr interpolationmode sample-hold
attr source receptionStateChanged
attr title "Radio reception state, vector"
vector 10 Wireless_6_1m.hostD.wlan[0].radio receptionState:vector ETV
attr interpolationmode sample-hold
attr source receptionStateChanged
attr title "Radio reception state, vector"
vector 11 Wireless_6_1m.hostE.wlan[0].radio receptionState:vector ETV
attr interpolationmode sample-hold
attr source receptionStateChanged
attr title "Radio reception state, vector"
vector 12 Wireless_6_1m.hostF.wlan[0].radio receptionState:vector ETV
attr interpolationmode sample-hold
attr source receptionStateChanged
attr title "Radio reception state, vector"
vector 13 Wireless_6_1m.hostG.wlan[0].radio receptionState:vector ETV
attr interpolationmode sample-hold
attr source receptionStateChanged
attr title "Radio reception state, vector"
vector 14 Wireless_6_1m.hostA.udp packetSent:vector(packetBytes) ETV
attr interpolationmode none
attr source packetSent
attr title "packets sent, vector(packetBytes)"
vector 15 Wireless_6_1m.hostA.lo[0].lo rcvdPkFromHl:vector(packetBytes) ETV
attr interpolationmode none
attr source packetReceivedFromUpper
attr title "packets received from higher layer, vector(packetBytes)"
vector 16 Wireless_6_1m.hostA.lo[0].lo passedUpPk:vector(packetBytes) ETV
attr interpolationmode none
attr source packetSentToUpper
attr title "packets passed to higher layer, vector(packetBytes)"
vector 17 Wireless_6_1m.hostA.wlan[0].mac.queue packetPushed:vector(packetBytes) ETV
attr interpolationmode none
attr title "packet pushed, vector(packetBytes)"
vector 18 Wireless_6_1m.hostA.wlan[0].mac.queue queueLength:vector ETV
attr interpolationmode sample-hold
attr source "count(packetPushed) - count(packetPopped) - count(packetRemoved) - count(packetDropped)"
attr title "queue length, vector"
vector 19 Wireless_6_1m.hostA.wlan[0].mac.queue packetPopped:vector(packetBytes) ETV
attr interpolationmode none
attr title "packet popped, vector(packetBytes)"
vector 20 Wireless_6_1m.hostA.wlan[0].mac.queue queueingTime:vector ETV
attr interpolationmode none
attr source queueingTime(packetPopped)
attr title "queueing times, vector"
attr unit s
vector 21 Wireless_6_1m.hostA.udp packetReceived:vector(packetBytes) ETV
attr interpolationmode none
attr source packetReceived
attr title "packets received, vector(packetBytes)"
vector 22 Wireless_6_1m.hostA.udp droppedPkWrongPort:vector(count) ETV
attr interpolationmode none
attr source packetDropReasonIsNoPortFound(packetDropped)
attr title "packets dropped (wrong port), vector(count)"
vector 23 Wireless_6_1m.hostA.wlan[0].radio transmissionState:vector ETV
attr interpolationmode sample-hold
attr source transmissionStateChanged
attr title "Radio transmission state, vector"
vector 24 Wireless_6_1m.hostB.udp packetReceived:vector(packetBytes) ETV
attr interpolationmode none
attr source packetReceived
attr title "packets received, vector(packetBytes)"
vector 25 Wireless_6_1m.hostB.udp passedUpPk:vector(count) ETV
attr interpolationmode none
attr source packetSentToUpper
attr title "packets passed up, vector(count)"
vector 26 Wireless_6_1m.hostC.udp packetReceived:vector(packetBytes) ETV
attr interpolationmode none
attr source packetReceived
attr title "packets received, vector(packetBytes)"
vector 27 Wireless_6_1m.hostC.udp passedUpPk:vector(count) ETV
attr interpolationmode none
attr source packetSentToUpper
attr title "packets passed up, vector(count)"
vector 28 Wireless_6_1m.hostD.udp packetReceived:vector(packetBytes) ETV
attr interpolationmode none
attr source packetReceived
attr title "packets received, vector(packetBytes)"
vector 29 Wireless_6_1m.hostD.udp passedUpPk:vector(count) ETV
attr interpolationmode none
attr source packetSentToUpper
attr title "packets passed up, vector(count)"
vector 30 Wireless_6_1m.hostE.udp packetReceived:vector(packetBytes) ETV
attr interpolationmode none
attr source packetReceived
attr title "packets received, vector(packetBytes)"
vector 31 Wireless_6_1m.hostE.udp passedUpPk:vector(count) ETV
attr interpolationmode none
attr source packetSentToUpper
attr title "packets passed up, vector(count)"
vector 32 Wireless_6_1m.hostF.udp packetReceived:vector(packetBytes) ETV
attr interpolationmode none
attr source packetReceived
attr title "packets received, vector(packetBytes)"
vector 33 Wireless_6_1m.hostF.udp passedUpPk:vector(count) ETV
attr interpolationmode none
attr source packetSentToUpper
attr title "packets passed up, vector(count)"
vector 34 Wireless_6_1m.hostG.udp packetReceived:vector(packetBytes) ETV
attr interpolationmode none
attr source packetReceived
attr title "packets received, vector(packetBytes)"
vector 35 Wireless_6_1m.hostG.udp passedUpPk:vector(count) ETV
attr interpolationmode none
attr source packetSentToUpper
attr title "packets passed up, vector(count)"
vector 36 Wireless_6_1m.hostB.udp packetSent:vector(packetBytes) ETV
attr interpolationmode none
attr source packetSent
attr title "packets sent, vector(packetBytes)"
vector 37 Wireless_6_1m.hostC.udp packetSent:vector(packetBytes) ETV
attr interpolationmode none
attr source packetSent
attr title "packets sent, vector(packetBytes)"
vector 38 Wireless_6_1m.hostD.udp packetSent:vector(packetBytes) ETV
attr interpolationmode none
attr source packetSent
attr title "packets sent, vector(packetBytes)"
vector 39 Wireless_6_1m.hostE.udp packetSent:vector(packetBytes) ETV
attr interpolationmode none
attr source packetSent
attr title "packets sent, vector(packetBytes)"
vector 40 Wireless_6_1m.hostF.udp packetSent:vector(packetBytes) ETV
attr interpolationmode none
attr source packetSent
attr title "packets sent, vector(packetBytes)"
vector 41 Wireless_6_1m.hostG.udp packetSent:vector(packetBytes) ETV
attr interpolationmode none
attr source packetSent
attr title "packets sent, vector(packetBytes)"
vector 42 Wireless_6_1m.hostB.wlan[0].mac.queue packetPushed:vector(packetBytes) ETV
attr interpolationmode none
attr title "packet pushed, vector(packetBytes)"
vector 43 Wireless_6_1m.hostB.wlan[0].mac.queue queueLength:vector ETV
attr interpolationmode sample-hold
attr source "count(packetPushed) - count(packetPopped) - count(packetRemoved) - count(packetDropped)"
attr title "queue length, vector"
vector 44 Wireless_6_1m.hostB.wlan[0].mac.queue packetPopped:vector(packetBytes) ETV
attr interpolationmode none
attr title "packet popped, vector(packetBytes)"
vector 45 Wireless_6_1m.hostB.wlan[0].mac.queue queueingTime:vector ETV
attr interpolationmode none
attr source queueingTime(packetPopped)
attr title "queueing times, vector"
attr unit s
vector 46 Wireless_6_1m.hostC.wlan[0].mac.queue packetPushed:vector(packetBytes) ETV
attr interpolationmode none
attr title "packet pushed, vector(packetBytes)"
vector 47 Wireless_6_1m.hostC.wlan[0].mac.queue queueLength:vector ETV
attr interpolationmode sample-hold
attr source "count(packetPushed) - count(packetPopped) - count(packetRemoved) - count(packetDropped)"
attr title "queue length, vector"
vector 48 Wireless_6_1m.hostC.wlan[0].mac.queue packetPopped:vector(packetBytes) ETV
attr interpolationmode none
attr title "packet popped, vector(packetBytes)"
vector 49 Wireless_6_1m.hostC.wlan[0].mac.queue queueingTime:vector ETV
attr interpolationmode none
attr source queueingTime(packetPopped)
attr title "queueing times, vector"
attr unit s
vector 50 Wireless_6_1m.hostD.wlan[0].mac.queue packetPushed:vector(packetBytes) ETV
attr interpolationmode none
attr title "packet pushed, vector(packetBytes)"
vector 51 Wireless_6_1m.hostD.wlan[0].mac.queue queueLength:vector ETV
attr interpolationmode sample-hold
attr source "count(packetPushed) - count(packetPopped) - count(packetRemoved) - count(packetDropped)"
attr title "queue length, vector"
vector 52 Wireless_6_1m.hostD.wlan[0].mac.queue packetPopped:vector(packetBytes) ETV
attr interpolationmode none
attr title "packet popped, vector(packetBytes)"
vector 53 Wireless_6_1m.hostD.wlan[0].mac.queue queueingTime:vector ETV
attr interpolationmode none
attr source queueingTime(packetPopped)
attr title "queueing times, vector"
attr unit s
vector 54 Wireless_6_1m.hostE.wlan[0].mac.queue packetPushed:vector(packetBytes) ETV
attr interpolationmode none
attr title "packet pushed, vector(packetBytes)"
vector 55 Wireless_6_1m.hostE.wlan[0].mac.queue queueLength:vector ETV
attr interpolationmode sample-hold
attr source "count(packetPushed) - count(packetPopped) - count(packetRemoved) - count(packetDropped)"
attr title "queue length, vector"
vector 56 Wireless_6_1m.hostE.wlan[0].mac.queue packetPopped:vector(packetBytes) ETV
attr interpolationmode none
attr title "packet popped, vector(packetBytes)"
vector 57 Wireless_6_1m.hostE.wlan[0].mac.queue queueingTime:vector ETV
attr interpolationmode none
attr source queueingTime(packetPopped)
attr title "queueing times, vector"
attr unit s
vector 58 Wireless_6_1m.hostF.wlan[0].mac.queue packetPushed:vector(packetBytes) ETV
attr interpolationmode none
attr title "packet pushed, vector(packetBytes)"
vector 59 Wireless_6_1m.hostF.wlan[0].mac.queue queueLength:vector ETV
attr interpolationmode sample-hold
attr source "count(packetPushed) - count(packetPopped) - count(packetRemoved) - count(packetDropped)"
attr title "queue length, vector"
vector 60 Wireless_6_1m.hostF.wlan[0].mac.queue packetPopped:vector(packetBytes) ETV
attr interpolationmode none
attr title "packet popped, vector(packetBytes)"
vector 61 Wireless_6_1m.hostF.wlan[0].mac.queue queueingTime:vector ETV
attr interpolationmode none
attr source queueingTime(packetPopped)
attr title "queueing times, vector"
attr unit s
vector 62 Wireless_6_1m.hostG.wlan[0].mac.queue packetPushed:vector(packetBytes) ETV
attr interpolationmode none
attr title "packet pushed, vector(packetBytes)"
vector 63 Wireless_6_1m.hostG.wlan[0].mac.queue queueLength:vector ETV
attr interpolationmode sample-hold
attr source "count(packetPushed) - count(packetPopped) - count(packetRemoved) - count(packetDropped)"
attr title "queue length, vector"
vector 64 Wireless_6_1m.hostG.wlan[0].mac.queue packetPopped:vector(packetBytes) ETV
attr interpolationmode none
attr title "packet popped, vector(packetBytes)"
vector 65 Wireless_6_1m.hostG.wlan[0].mac.queue queueingTime:vector ETV
attr interpolationmode none
attr source queueingTime(packetPopped)
attr title "queueing times, vector"
attr unit s
vector 66 Wireless_6_1m.hostB.wlan[0].radio transmissionState:vector ETV
attr interpolationmode sample-hold
attr source transmissionStateChanged
attr title "Radio transmission state, vector"
vector 67 Wireless_6_1m.hostE.wlan[0].mac packetDropNotAddressedToUs:vector(packetBytes) ETV
attr interpolationmode none
attr source packetDropReasonIsNotAddressedToUs(packetDropped)
attr title "packet drop: not addressed to us, vector(packetBytes)"
vector 68 Wireless_6_1m.hostG.wlan[0].mac packetDropNotAddressedToUs:vector(packetBytes) ETV
attr interpolationmode none
attr source packetDropReasonIsNotAddressedToUs(packetDropped)
attr title "packet drop: not addressed to us, vector(packetBytes)"
vector 69 Wireless_6_1m.hostA.udp passedUpPk:vector(count) ETV
attr interpolationmode none
attr source packetSentToUpper
attr title "packets passed up, vector(count)"
vector 70 Wireless_6_1m.hostD.wlan[0].mac packetDropNotAddressedToUs:vector(packetBytes) ETV
attr interpolationmode none
attr source packetDropReasonIsNotAddressedToUs(packetDropped)
attr title "packet drop: not addressed to us, vector(packetBytes)"
vector 71 Wireless_6_1m.hostF.wlan[0].mac packetDropNotAddressedToUs:vector(packetBytes) ETV
attr interpolationmode none
attr source packetDropReasonIsNotAddressedToUs(packetDropped)
attr title "packet drop: not addressed to us, vector(packetBytes)"
vector 72 Wireless_6_1m.hostC.wlan[0].mac packetDropNotAddressedToUs:vector(packetBytes) ETV
attr interpolationmode none
attr source packetDropReasonIsNotAddressedToUs(packetDropped)
attr title "packet drop: not addressed to us, vector(packetBytes)"
vector 73 Wireless_6_1m.hostE.wlan[0].radio transmissionState:vector ETV
attr interpolationmode sample-hold
attr source transmissionStateChanged
attr title "Radio transmission state, vector"
vector 74 Wireless_6_1m.hostB.wlan[0].mac packetDropNotAddressedToUs:vector(packetBytes) ETV
attr interpolationmode none
attr source packetDropReasonIsNotAddressedToUs(packetDropped)
attr title "packet drop: not addressed to us, vector(packetBytes)"
vector 75 Wireless_6_1m.hostF.wlan[0].radio transmissionState:vector ETV
attr interpolationmode sample-hold
attr source transmissionStateChanged
attr title "Radio transmission state, vector"
vector 76 Wireless_6_1m.hostC.wlan[0].radio transmissionState:vector ETV
attr interpolationmode sample-hold
attr source transmissionStateChanged
attr title "Radio transmission state, vector"
vector 77 Wireless_6_1m.hostD.wlan[0].radio transmissionState:vector ETV
attr interpolationmode sample-hold
attr source transmissionStateChanged
attr title "Radio transmission state, vector"
vector 78 Wireless_6_1m.hostA.wlan[0].mac packetDropIncorrectlyReceived:vector(packetBytes) ETV
attr interpolationmode none
attr source packetDropReasonIsIncorrectlyReceived(packetDropped)
attr title "packet drop: incorrectly received, vector(packetBytes)"
vector 79 Wireless_6_1m.hostG.wlan[0].mac packetDropIncorrectlyReceived:vector(packetBytes) ETV
attr interpolationmode none
attr source packetDropReasonIsIncorrectlyReceived(packetDropped)
attr title "packet drop: incorrectly received, vector(packetBytes)"
vector 80 Wireless_6_1m.hostB.wlan[0].mac packetDropIncorrectlyReceived:vector(packetBytes) ETV
attr interpolationmode none
attr source packetDropReasonIsIncorrectlyReceived(packetDropped)
attr title "packet drop: incorrectly received, vector(packetBytes)"
vector 81 Wireless_6_1m.hostG.wlan[0].radio transmissionState:vector ETV
attr interpolationmode sample-hold
attr source transmissionStateChanged
attr title "Radio transmission state, vector"
0	0	0	0
0	0	0	0
0	0	0	2
0	22	0.00005	3
0	30	0.000596	2
0	109	0.001262006672	3
0	117	0.001480006672	2
0	159	0.002206013344	3
0	167	0.002424013344	2
0	208	0.003110020016	3
0	216	0.003328020016	2
0	294	0.004810033359	3
0	302	0.005028033359	2
0	341	0.005954040031	3
0	349	0.006172040031	2
0	387	0.007678046703	3
0	395	0.007896046703	2
1	0	0	0
1	0	0	0
1	0	0	2
1	85	0.000706003336	3
1	93	0.001252003336	2
2	0	0	0
2	0	0	0
2	0	0	2
2	232	0.003498023352	3
2	248	0.004044023352	2
2	317	0.005398036695	3
2	325	0.005944036695	2
3	0	0	0
3	0	0	0
3	0	0	2
3	233	0.003498023352	3
3	249	0.004044023352	2
3	363	0.007122043367	3
3	371	0.007668043367	2
4	0	0	0
4	0	0	0
4	0	0	2
4	135	0.001650010008	3
4	143	0.002196010008	2
5	0	0	0
5	0	0	0
5	0	0	2
5	184	0.00255401668	3
5	192	0.00310001668	2
6	0	0	0
6	0	0	0
6	0	0	2
6	268	0.004254030023	3
6	278	0.004800030023	2
7	0	0	1
7	22	0.00005	0
7	30	0.000596	1
7	87	0.000706006672	3
7	94	0.001252006672	1
7	109	0.001262006672	0
7	117	0.001480006672	1
7	137	0.001650013344	3
7	144	0.002196013344	1
7	159	0.002206013344	0
7	167	0.002424013344	1
7	186	0.002554020016	3
7	193	0.003100020016	1
7	208	0.003110020016	0
7	216	0.003328020016	1
7	236	0.003498026688	3
7	250	0.004044026688	1
7	270	0.004254033359	3
7	279	0.004800033359	1
7	294	0.004810033359	0
7	302	0.005028033359	1
7	319	0.005398040031	3
7	326	0.005944040031	1
7	341	0.005954040031	0
7	349	0.006172040031	1
7	365	0.007122046703	3
7	372	0.007668046703	1
7	387	0.007678046703	0
7	395	0.007896046703	1
8	0	0	1
8	24	0.000050003336	3
8	31	0.000596003336	1
8	85	0.000706003336	0
8	93	0.001252003336	1
8	111	0.001262010008	3
8	118	0.001480010008	1
8	138	0.001650013344	3
8	145	0.002196013344	1
8	161	0.00220601668	3
8	168	0.00242401668	1
8	189	0.002554022457	3
8	202	0.003100022457	1
8	210	0.003110023352	3
8	217	0.003328023352	1
8	244	0.003498029129	3
8	261	0.004044029129	2
8	265	0.004044030023	1
8	271	0.004254033359	3
8	280	0.004800033359	1
8	296	0.004810036695	3
8	303	0.005028036695	1
8	324	0.005398043366	3
8	339	0.005944043366	1
8	343	0.005954043367	3
8	350	0.006172043367	1
8	368	0.007122049144	3
8	381	0.007668049144	1
8	389	0.007678050039	3
8	396	0.007896050039	1
9	0	0	1
9	25	0.000050003336	3
9	32	0.000596003336	1
9	92	0.000706010007	3
9	107	0.001252010007	1
9	112	0.001262010008	3
9	119	0.001480010008	1
9	140	0.001650015785	3
9	153	0.002196015785	1
9	162	0.00220601668	3
9	169	0.00242401668	1
9	187	0.002554020016	3
9	194	0.003100020016	1
9	211	0.003110023352	3
9	218	0.003328023352	1
9	232	0.003498023352	0
9	248	0.004044023352	2
9	254	0.004044026688	1
9	273	0.0042540358	3
9	288	0.0048000358	1
9	297	0.004810036695	3
9	304	0.005028036695	1
9	317	0.005398036695	0
9	325	0.005944036695	1
9	344	0.005954043367	3
9	351	0.006172043367	1
9	366	0.007122046703	3
9	373	0.007668046703	1
9	390	0.007678050039	3
9	397	0.007896050039	1
10	0	0	1
10	26	0.000050003336	3
10	33	0.000596003336	1
10	90	0.000706009113	3
10	103	0.001252009113	1
10	113	0.001262010008	3
10	120	0.001480010008	1
10	139	0.001650013344	3
10	146	0.002196013344	1
10	163	0.00220601668	3
10	170	0.00242401668	1
10	190	0.002554022457	3
10	203	0.003100022457	1
10	212	0.003110023352	3
10	219	0.003328023352	1
10	233	0.003498023352	0
10	249	0.004044023352	2
10	251	0.004044026688	1
10	275	0.004254036694	3
10	292	0.004800036694	1
10	298	0.004810036695	3
10	305	0.005028036695	1
10	320	0.005398040031	3
10	327	0.005944040031	1
10	345	0.005954043367	3
10	352	0.006172043367	1
10	363	0.007122043367	0
10	371	0.007668043367	1
10	391	0.007678050039	3
10	398	0.007896050039	1
11	0	0	1
11	27	0.000050003336	3
11	34	0.000596003336	1
11	88	0.000706006672	3
11	95	0.001252006672	1
11	114	0.001262010008	3
11	121	0.001480010008	1
11	135	0.001650010008	0
11	143	0.002196010008	1
11	164	0.00220601668	3
11	171	0.00242401668	1
11	191	0.002554023351	3
11	206	0.003100023351	1
11	213	0.003110023352	3
11	220	0.003328023352	1
11	241	0.003498026688	3
11	255	0.004044026688	2
11	259	0.004044029129	1
11	274	0.0042540358	3
11	289	0.0048000358	1
11	299	0.004810036695	3
11	306	0.005028036695	1
11	322	0.005398042472	3
11	335	0.005944042472	1
11	346	0.005954043367	3
11	353	0.006172043367	1
11	367	0.007122046703	3
11	374	0.007668046703	1
11	392	0.007678050039	3
11	399	0.007896050039	1
12	0	0	1
12	28	0.000050003336	3
12	35	0.000596003336	1
12	91	0.000706009113	3
12	104	0.001252009113	1
12	115	0.001262010008	3
12	122	0.001480010008	1
12	142	0.001650016679	3
12	157	0.002196016679	1
12	165	0.00220601668	3
12	172	0.00242401668	1
12	184	0.00255401668	0
12	192	0.00310001668	1
12	214	0.003110023352	3
12	221	0.003328023352	1
12	238	0.003498026688	3
12	252	0.004044026688	2
12	262	0.004044029129	1
12	272	0.004254033359	3
12	281	0.004800033359	1
12	300	0.004810036695	3
12	307	0.005028036695	1
12	321	0.005398040031	3
12	328	0.005944040031	1
12	347	0.005954043367	3
12	354	0.006172043367	1
12	369	0.007122049144	3
12	382	0.007668049144	1
12	393	0.007678050039	3
12	400	0.007896050039	1
13	0	0	1
13	29	0.000050003336	3
13	36	0.000596003336	1
13	89	0.000706006672	3
13	96	0.001252006672	1
13	116	0.001262010008	3
13	123	0.001480010008	1
13	141	0.001650015785	3
13	154	0.002196015785	1
13	166	0.00220601668	3
13	173	0.00242401668	1
13	188	0.002554020016	3
13	195	0.003100020016	1
13	215	0.003110023352	3
13	222	0.003328023352	1
13	243	0.003498029129	3
13	260	0.004044029129	2
13	266	0.004044030023	1
13	268	0.004254030023	0
13	278	0.004800030023	1
13	301	0.004810036695	3
13	308	0.005028036695	1
13	323	0.005398042472	3
13	336	0.005944042472	1
13	348	0.005954043367	3
13	355	0.006172043367	1
13	370	0.007122050038	3
13	385	0.007668050038	1
13	394	0.007678050039	3
13	401	0.007896050039	1
14	3	0	12
15	17	0	32
16	17	0	32
17	18	0	59
18	18	0	1
18	18	0	0
19	18	0	59
20	18	0	0
21	20	0	12
21	101	0.001252006672	12
21	151	0.002196013344	12
21	200	0.003100020016	12
21	286	0.004800033359	12
21	333	0.005944040031	12
21	379	0.007668046703	12
22	20	0	1
23	22	0.00005	1
23	23	0.00005	2
23	30	0.000596	1
23	30	0.000596	0
23	109	0.001262006672	1
23	110	0.001262006672	2
23	117	0.001480006672	1
23	117	0.001480006672	0
23	159	0.002206013344	1
23	160	0.002206013344	2
23	167	0.002424013344	1
23	167	0.002424013344	0
23	208	0.003110020016	1
23	209	0.003110020016	2
23	216	0.003328020016	1
23	216	0.003328020016	0
23	294	0.004810033359	1
23	295	0.004810033359	2
23	302	0.005028033359	1
23	302	0.005028033359	0
23	341	0.005954040031	1
23	342	0.005954040031	2
23	349	0.006172040031	1
23	349	0.006172040031	0
23	387	0.007678046703	1
23	388	0.007678046703	2
23	395	0.007896046703	1
23	395	0.007896046703	0
24	49	0.000596003336	12
25	49	0.000596003336	1
26	50	0.000596003336	12
27	50	0.000596003336	1
28	51	0.000596003336	12
29	51	0.000596003336	1
30	52	0.000596003336	12
31	52	0.000596003336	1
32	53	0.000596003336	12
33	53	0.000596003336	1
34	54	0.000596003336	12
35	54	0.000596003336	1
36	61	0.000596003336	12
37	62	0.000596003336	12
38	63	0.000596003336	12
39	64	0.000596003336	12
40	65	0.000596003336	12
41	66	0.000596003336	12
42	73	0.000596003336	59
43	73	0.000596003336	1
43	73	0.000596003336	0
44	73	0.000596003336	59
45	73	0.000596003336	0
46	74	0.000596003336	59
47	74	0.000596003336	1
47	74	0.000596003336	0
48	74	0.000596003336	59
49	74	0.000596003336	0
50	75	0.000596003336	59
51	75	0.000596003336	1
51	75	0.000596003336	0
52	75	0.000596003336	59
53	75	0.000596003336	0
54	76	0.000596003336	59
55	76	0.000596003336	1
55	76	0.000596003336	0
56	76	0.000596003336	59
57	76	0.000596003336	0
58	77	0.000596003336	59
59	77	0.000596003336	1
59	77	0.000596003336	0
60	77	0.000596003336	59
61	77	0.000596003336	0
62	78	0.000596003336	59
63	78	0.000596003336	1
63	78	0.000596003336	0
64	78	0.000596003336	59
65	78	0.000596003336	0
66	85	0.000706003336	1
66	86	0.000706003336	2
66	93	0.001252003336	1
66	93	0.001252003336	0
67	98	0.001252006672	59
67	207	0.003100023351	59
67	258	0.004044026688	59
67	291	0.0048000358	59
67	337	0.005944042472	59
67	377	0.007668046703	59
68	99	0.001252006672	59
68	156	0.002196015785	59
68	198	0.003100020016	59
68	338	0.005944042472	59
68	386	0.007668050038	59
69	101	0.001252006672	1
69	151	0.002196013344	2
69	200	0.003100020016	3
69	286	0.004800033359	4
69	333	0.005944040031	5
69	379	0.007668046703	6
70	105	0.001252009113	59
70	149	0.002196013344	59
70	205	0.003100022457	59
70	293	0.004800036694	59
70	330	0.005944040031	59
71	106	0.001252009113	59
71	158	0.002196016679	59
71	257	0.004044026688	59
71	284	0.004800033359	59
71	331	0.005944040031	59
71	384	0.007668049144	59
72	108	0.001252010007	59
72	155	0.002196015785	59
72	197	0.003100020016	59
72	290	0.0048000358	59
72	376	0.007668046703	59
73	135	0.001650010008	1
73	136	0.001650010008	2
73	143	0.002196010008	1
73	143	0.002196010008	0
74	148	0.002196013344	59
74	204	0.003100022457	59
74	283	0.004800033359	59
74	340	0.005944043366	59
74	383	0.007668049144	59
75	184	0.00255401668	1
75	185	0.00255401668	2
75	192	0.00310001668	1
75	192	0.00310001668	0
76	232	0.003498023352	1
76	234	0.003498023352	2
76	248	0.004044023352	1
76	248	0.004044023352	0
76	317	0.005398036695	1
76	318	0.005398036695	2
76	325	0.005944036695	1
76	325	0.005944036695	0
77	233	0.003498023352	1
77	235	0.003498023352	2
77	249	0.004044023352	1
77	249	0.004044023352	0
77	363	0.007122043367	1
77	364	0.007122043367	2
77	371	0.007668043367	1
77	371	0.007668043367	0
78	256	0.004044026688	59
79	263	0.004044029129	59
80	264	0.004044029129	59
81	268	0.004254030023	1
81	269	0.004254030023	2
81	278	0.004800030023	1
81	278	0.004800030023	0

