version 2
run Wireless01-4-20200702-16:42:47-4889
attr configname Wireless01
attr datetime 20200702-16:42:47
attr experiment Wireless01
attr inifile omnetpp.ini
attr iterationvars $name=Wireless_6_5m
attr iterationvarsf name=Wireless#_6#_5m-
attr measurement $name=Wireless_6_5m
attr network "${name=Wireless_3_1m,Wireless_3_5m, Wireless_3_10m, Wireless_6_1m, Wireless_6_5m, Wireless_6_10m, Wireless_12_1m, Wireless_12_5m, Wireless_12_10m }"
attr processid 4889
attr repetition 0
attr replication #0
attr resultdir results
attr runnumber 4
attr seedset 4
itervar name Wireless_6_5m
param *.hostA.numApps 1
param *.hostA.app[0].typename "\"TDOAApp\""
param *.hostA.app[0].destAddresses "\"Broadcast\""
param *.hostA.app[0].destPort 5000
param *.hostA.app[0].localPort 6000
param *.hostA.app[0].isReceiver false
param *.hostA.app[0].Nome_arquivo "\"Wireless_6_5m.csv\""
param *.host*.numApps 1
param *.host*.app[0].typename "\"TDOAApp\""
param *.host*.app[0].localPort 5000
param *.host*.app[0].destPort 6000
param *.host*.app[0].destAddresses "\"hostA\""
param *.host*.app[0].isReceiver true
param *.host*.wlan[0].typename "\"WirelessInterface\""
param *.radioMedium.typename "\"ApskScalarRadioMedium\""
param *.radioMedium.backgroundNoise.power -90dBm
param *.radioMedium.mediumLimitCache.centerFrequency 2GHz
param *.host*.wlan[0].radio.typename "\"ApskScalarRadio\""
param *.host*.wlan[0].radio.centerFrequency 2GHz
param *.host*.wlan[0].radio.bandwidth 2MHz
param *.host*.wlan[0].radio.transmitter.power 1.4mW
param *.host*.wlan[0].radio.transmitter.preambleDuration 10us
param *.host*.wlan[0].radio.transmitter.headerLength 8B
param *.host*.wlan[0].radio.receiver.sensitivity -85dBm
param *.host*.wlan[0].radio.receiver.energyDetection -85dBm
param *.host*.wlan[0].radio.receiver.snirThreshold 4dB
param *.host*.wlan[0].mac.typename "\"CsmaCaMac\""
param *.host*.wlan[0].mac.ackTimeout 300us
param *.host*.wlan[0].mac.useAck true
param *.host*.wlan[0].mac.fullDuplex false
param *.host*.wlan[0].radio.receiver.ignoreInterference true
param *.host*.wlan[0].mac.headerLength 23B
param *.host*.**.bitrate 1Mbps
param *.host*.ipv4.arp.typename "\"GlobalArp\""
param **.ip.limitedBroadcast true

vector 0 Wireless_6_5m.hostA.wlan[0].radio radioMode:vector ETV
attr interpolationmode sample-hold
attr source radioModeChanged
attr title "Radio mode, vector"
vector 1 Wireless_6_5m.hostB.wlan[0].radio radioMode:vector ETV
attr interpolationmode sample-hold
attr source radioModeChanged
attr title "Radio mode, vector"
vector 2 Wireless_6_5m.hostC.wlan[0].radio radioMode:vector ETV
attr interpolationmode sample-hold
attr source radioModeChanged
attr title "Radio mode, vector"
vector 3 Wireless_6_5m.hostD.wlan[0].radio radioMode:vector ETV
attr interpolationmode sample-hold
attr source radioModeChanged
attr title "Radio mode, vector"
vector 4 Wireless_6_5m.hostE.wlan[0].radio radioMode:vector ETV
attr interpolationmode sample-hold
attr source radioModeChanged
attr title "Radio mode, vector"
vector 5 Wireless_6_5m.hostF.wlan[0].radio radioMode:vector ETV
attr interpolationmode sample-hold
attr source radioModeChanged
attr title "Radio mode, vector"
vector 6 Wireless_6_5m.hostG.wlan[0].radio radioMode:vector ETV
attr interpolationmode sample-hold
attr source radioModeChanged
attr title "Radio mode, vector"
vector 7 Wireless_6_5m.hostA.wlan[0].radio receptionState:vector ETV
attr interpolationmode sample-hold
attr source receptionStateChanged
attr title "Radio reception state, vector"
vector 8 Wireless_6_5m.hostB.wlan[0].radio receptionState:vector ETV
attr interpolationmode sample-hold
attr source receptionStateChanged
attr title "Radio reception state, vector"
vector 9 Wireless_6_5m.hostC.wlan[0].radio receptionState:vector ETV
attr interpolationmode sample-hold
attr source receptionStateChanged
attr title "Radio reception state, vector"
vector 10 Wireless_6_5m.hostD.wlan[0].radio receptionState:vector ETV
attr interpolationmode sample-hold
attr source receptionStateChanged
attr title "Radio reception state, vector"
vector 11 Wireless_6_5m.hostE.wlan[0].radio receptionState:vector ETV
attr interpolationmode sample-hold
attr source receptionStateChanged
attr title "Radio reception state, vector"
vector 12 Wireless_6_5m.hostF.wlan[0].radio receptionState:vector ETV
attr interpolationmode sample-hold
attr source receptionStateChanged
attr title "Radio reception state, vector"
vector 13 Wireless_6_5m.hostG.wlan[0].radio receptionState:vector ETV
attr interpolationmode sample-hold
attr source receptionStateChanged
attr title "Radio reception state, vector"
vector 14 Wireless_6_5m.hostA.udp packetSent:vector(packetBytes) ETV
attr interpolationmode none
attr source packetSent
attr title "packets sent, vector(packetBytes)"
vector 15 Wireless_6_5m.hostA.lo[0].lo rcvdPkFromHl:vector(packetBytes) ETV
attr interpolationmode none
attr source packetReceivedFromUpper
attr title "packets received from higher layer, vector(packetBytes)"
vector 16 Wireless_6_5m.hostA.lo[0].lo passedUpPk:vector(packetBytes) ETV
attr interpolationmode none
attr source packetSentToUpper
attr title "packets passed to higher layer, vector(packetBytes)"
vector 17 Wireless_6_5m.hostA.wlan[0].mac.queue packetPushed:vector(packetBytes) ETV
attr interpolationmode none
attr title "packet pushed, vector(packetBytes)"
vector 18 Wireless_6_5m.hostA.wlan[0].mac.queue queueLength:vector ETV
attr interpolationmode sample-hold
attr source "count(packetPushed) - count(packetPopped) - count(packetRemoved) - count(packetDropped)"
attr title "queue length, vector"
vector 19 Wireless_6_5m.hostA.wlan[0].mac.queue packetPopped:vector(packetBytes) ETV
attr interpolationmode none
attr title "packet popped, vector(packetBytes)"
vector 20 Wireless_6_5m.hostA.wlan[0].mac.queue queueingTime:vector ETV
attr interpolationmode none
attr source queueingTime(packetPopped)
attr title "queueing times, vector"
attr unit s
vector 21 Wireless_6_5m.hostA.udp packetReceived:vector(packetBytes) ETV
attr interpolationmode none
attr source packetReceived
attr title "packets received, vector(packetBytes)"
vector 22 Wireless_6_5m.hostA.udp droppedPkWrongPort:vector(count) ETV
attr interpolationmode none
attr source packetDropReasonIsNoPortFound(packetDropped)
attr title "packets dropped (wrong port), vector(count)"
vector 23 Wireless_6_5m.hostA.wlan[0].radio transmissionState:vector ETV
attr interpolationmode sample-hold
attr source transmissionStateChanged
attr title "Radio transmission state, vector"
vector 24 Wireless_6_5m.hostB.udp packetReceived:vector(packetBytes) ETV
attr interpolationmode none
attr source packetReceived
attr title "packets received, vector(packetBytes)"
vector 25 Wireless_6_5m.hostB.udp passedUpPk:vector(count) ETV
attr interpolationmode none
attr source packetSentToUpper
attr title "packets passed up, vector(count)"
vector 26 Wireless_6_5m.hostC.udp packetReceived:vector(packetBytes) ETV
attr interpolationmode none
attr source packetReceived
attr title "packets received, vector(packetBytes)"
vector 27 Wireless_6_5m.hostC.udp passedUpPk:vector(count) ETV
attr interpolationmode none
attr source packetSentToUpper
attr title "packets passed up, vector(count)"
vector 28 Wireless_6_5m.hostD.udp packetReceived:vector(packetBytes) ETV
attr interpolationmode none
attr source packetReceived
attr title "packets received, vector(packetBytes)"
vector 29 Wireless_6_5m.hostD.udp passedUpPk:vector(count) ETV
attr interpolationmode none
attr source packetSentToUpper
attr title "packets passed up, vector(count)"
vector 30 Wireless_6_5m.hostE.udp packetReceived:vector(packetBytes) ETV
attr interpolationmode none
attr source packetReceived
attr title "packets received, vector(packetBytes)"
vector 31 Wireless_6_5m.hostE.udp passedUpPk:vector(count) ETV
attr interpolationmode none
attr source packetSentToUpper
attr title "packets passed up, vector(count)"
vector 32 Wireless_6_5m.hostF.udp packetReceived:vector(packetBytes) ETV
attr interpolationmode none
attr source packetReceived
attr title "packets received, vector(packetBytes)"
vector 33 Wireless_6_5m.hostF.udp passedUpPk:vector(count) ETV
attr interpolationmode none
attr source packetSentToUpper
attr title "packets passed up, vector(count)"
vector 34 Wireless_6_5m.hostG.udp packetReceived:vector(packetBytes) ETV
attr interpolationmode none
attr source packetReceived
attr title "packets received, vector(packetBytes)"
vector 35 Wireless_6_5m.hostG.udp passedUpPk:vector(count) ETV
attr interpolationmode none
attr source packetSentToUpper
attr title "packets passed up, vector(count)"
vector 36 Wireless_6_5m.hostB.udp packetSent:vector(packetBytes) ETV
attr interpolationmode none
attr source packetSent
attr title "packets sent, vector(packetBytes)"
vector 37 Wireless_6_5m.hostC.udp packetSent:vector(packetBytes) ETV
attr interpolationmode none
attr source packetSent
attr title "packets sent, vector(packetBytes)"
vector 38 Wireless_6_5m.hostD.udp packetSent:vector(packetBytes) ETV
attr interpolationmode none
attr source packetSent
attr title "packets sent, vector(packetBytes)"
vector 39 Wireless_6_5m.hostE.udp packetSent:vector(packetBytes) ETV
attr interpolationmode none
attr source packetSent
attr title "packets sent, vector(packetBytes)"
vector 40 Wireless_6_5m.hostF.udp packetSent:vector(packetBytes) ETV
attr interpolationmode none
attr source packetSent
attr title "packets sent, vector(packetBytes)"
vector 41 Wireless_6_5m.hostG.udp packetSent:vector(packetBytes) ETV
attr interpolationmode none
attr source packetSent
attr title "packets sent, vector(packetBytes)"
vector 42 Wireless_6_5m.hostB.wlan[0].mac.queue packetPushed:vector(packetBytes) ETV
attr interpolationmode none
attr title "packet pushed, vector(packetBytes)"
vector 43 Wireless_6_5m.hostB.wlan[0].mac.queue queueLength:vector ETV
attr interpolationmode sample-hold
attr source "count(packetPushed) - count(packetPopped) - count(packetRemoved) - count(packetDropped)"
attr title "queue length, vector"
vector 44 Wireless_6_5m.hostB.wlan[0].mac.queue packetPopped:vector(packetBytes) ETV
attr interpolationmode none
attr title "packet popped, vector(packetBytes)"
vector 45 Wireless_6_5m.hostB.wlan[0].mac.queue queueingTime:vector ETV
attr interpolationmode none
attr source queueingTime(packetPopped)
attr title "queueing times, vector"
attr unit s
vector 46 Wireless_6_5m.hostC.wlan[0].mac.queue packetPushed:vector(packetBytes) ETV
attr interpolationmode none
attr title "packet pushed, vector(packetBytes)"
vector 47 Wireless_6_5m.hostC.wlan[0].mac.queue queueLength:vector ETV
attr interpolationmode sample-hold
attr source "count(packetPushed) - count(packetPopped) - count(packetRemoved) - count(packetDropped)"
attr title "queue length, vector"
vector 48 Wireless_6_5m.hostC.wlan[0].mac.queue packetPopped:vector(packetBytes) ETV
attr interpolationmode none
attr title "packet popped, vector(packetBytes)"
vector 49 Wireless_6_5m.hostC.wlan[0].mac.queue queueingTime:vector ETV
attr interpolationmode none
attr source queueingTime(packetPopped)
attr title "queueing times, vector"
attr unit s
vector 50 Wireless_6_5m.hostD.wlan[0].mac.queue packetPushed:vector(packetBytes) ETV
attr interpolationmode none
attr title "packet pushed, vector(packetBytes)"
vector 51 Wireless_6_5m.hostD.wlan[0].mac.queue queueLength:vector ETV
attr interpolationmode sample-hold
attr source "count(packetPushed) - count(packetPopped) - count(packetRemoved) - count(packetDropped)"
attr title "queue length, vector"
vector 52 Wireless_6_5m.hostD.wlan[0].mac.queue packetPopped:vector(packetBytes) ETV
attr interpolationmode none
attr title "packet popped, vector(packetBytes)"
vector 53 Wireless_6_5m.hostD.wlan[0].mac.queue queueingTime:vector ETV
attr interpolationmode none
attr source queueingTime(packetPopped)
attr title "queueing times, vector"
attr unit s
vector 54 Wireless_6_5m.hostE.wlan[0].mac.queue packetPushed:vector(packetBytes) ETV
attr interpolationmode none
attr title "packet pushed, vector(packetBytes)"
vector 55 Wireless_6_5m.hostE.wlan[0].mac.queue queueLength:vector ETV
attr interpolationmode sample-hold
attr source "count(packetPushed) - count(packetPopped) - count(packetRemoved) - count(packetDropped)"
attr title "queue length, vector"
vector 56 Wireless_6_5m.hostE.wlan[0].mac.queue packetPopped:vector(packetBytes) ETV
attr interpolationmode none
attr title "packet popped, vector(packetBytes)"
vector 57 Wireless_6_5m.hostE.wlan[0].mac.queue queueingTime:vector ETV
attr interpolationmode none
attr source queueingTime(packetPopped)
attr title "queueing times, vector"
attr unit s
vector 58 Wireless_6_5m.hostF.wlan[0].mac.queue packetPushed:vector(packetBytes) ETV
attr interpolationmode none
attr title "packet pushed, vector(packetBytes)"
vector 59 Wireless_6_5m.hostF.wlan[0].mac.queue queueLength:vector ETV
attr interpolationmode sample-hold
attr source "count(packetPushed) - count(packetPopped) - count(packetRemoved) - count(packetDropped)"
attr title "queue length, vector"
vector 60 Wireless_6_5m.hostF.wlan[0].mac.queue packetPopped:vector(packetBytes) ETV
attr interpolationmode none
attr title "packet popped, vector(packetBytes)"
vector 61 Wireless_6_5m.hostF.wlan[0].mac.queue queueingTime:vector ETV
attr interpolationmode none
attr source queueingTime(packetPopped)
attr title "queueing times, vector"
attr unit s
vector 62 Wireless_6_5m.hostG.wlan[0].mac.queue packetPushed:vector(packetBytes) ETV
attr interpolationmode none
attr title "packet pushed, vector(packetBytes)"
vector 63 Wireless_6_5m.hostG.wlan[0].mac.queue queueLength:vector ETV
attr interpolationmode sample-hold
attr source "count(packetPushed) - count(packetPopped) - count(packetRemoved) - count(packetDropped)"
attr title "queue length, vector"
vector 64 Wireless_6_5m.hostG.wlan[0].mac.queue packetPopped:vector(packetBytes) ETV
attr interpolationmode none
attr title "packet popped, vector(packetBytes)"
vector 65 Wireless_6_5m.hostG.wlan[0].mac.queue queueingTime:vector ETV
attr interpolationmode none
attr source queueingTime(packetPopped)
attr title "queueing times, vector"
attr unit s
vector 66 Wireless_6_5m.hostD.wlan[0].radio transmissionState:vector ETV
attr interpolationmode sample-hold
attr source transmissionStateChanged
attr title "Radio transmission state, vector"
vector 67 Wireless_6_5m.hostF.wlan[0].radio transmissionState:vector ETV
attr interpolationmode sample-hold
attr source transmissionStateChanged
attr title "Radio transmission state, vector"
vector 68 Wireless_6_5m.hostA.wlan[0].mac packetDropIncorrectlyReceived:vector(packetBytes) ETV
attr interpolationmode none
attr source packetDropReasonIsIncorrectlyReceived(packetDropped)
attr title "packet drop: incorrectly received, vector(packetBytes)"
vector 69 Wireless_6_5m.hostC.wlan[0].mac packetDropIncorrectlyReceived:vector(packetBytes) ETV
attr interpolationmode none
attr source packetDropReasonIsIncorrectlyReceived(packetDropped)
attr title "packet drop: incorrectly received, vector(packetBytes)"
vector 70 Wireless_6_5m.hostE.wlan[0].mac packetDropNotAddressedToUs:vector(packetBytes) ETV
attr interpolationmode none
attr source packetDropReasonIsNotAddressedToUs(packetDropped)
attr title "packet drop: not addressed to us, vector(packetBytes)"
vector 71 Wireless_6_5m.hostG.wlan[0].mac packetDropNotAddressedToUs:vector(packetBytes) ETV
attr interpolationmode none
attr source packetDropReasonIsNotAddressedToUs(packetDropped)
attr title "packet drop: not addressed to us, vector(packetBytes)"
vector 72 Wireless_6_5m.hostB.wlan[0].mac packetDropIncorrectlyReceived:vector(packetBytes) ETV
attr interpolationmode none
attr source packetDropReasonIsIncorrectlyReceived(packetDropped)
attr title "packet drop: incorrectly received, vector(packetBytes)"
vector 73 Wireless_6_5m.hostC.wlan[0].radio transmissionState:vector ETV
attr interpolationmode sample-hold
attr source transmissionStateChanged
attr title "Radio transmission state, vector"
vector 74 Wireless_6_5m.hostD.wlan[0].mac packetDropNotAddressedToUs:vector(packetBytes) ETV
attr interpolationmode none
attr source packetDropReasonIsNotAddressedToUs(packetDropped)
attr title "packet drop: not addressed to us, vector(packetBytes)"
vector 75 Wireless_6_5m.hostF.wlan[0].mac packetDropNotAddressedToUs:vector(packetBytes) ETV
attr interpolationmode none
attr source packetDropReasonIsNotAddressedToUs(packetDropped)
attr title "packet drop: not addressed to us, vector(packetBytes)"
vector 76 Wireless_6_5m.hostA.udp passedUpPk:vector(count) ETV
attr interpolationmode none
attr source packetSentToUpper
attr title "packets passed up, vector(count)"
vector 77 Wireless_6_5m.hostB.wlan[0].mac packetDropNotAddressedToUs:vector(packetBytes) ETV
attr interpolationmode none
attr source packetDropReasonIsNotAddressedToUs(packetDropped)
attr title "packet drop: not addressed to us, vector(packetBytes)"
vector 78 Wireless_6_5m.hostB.wlan[0].radio transmissionState:vector ETV
attr interpolationmode sample-hold
attr source transmissionStateChanged
attr title "Radio transmission state, vector"
vector 79 Wireless_6_5m.hostC.wlan[0].mac packetDropNotAddressedToUs:vector(packetBytes) ETV
attr interpolationmode none
attr source packetDropReasonIsNotAddressedToUs(packetDropped)
attr title "packet drop: not addressed to us, vector(packetBytes)"
vector 80 Wireless_6_5m.hostG.wlan[0].radio transmissionState:vector ETV
attr interpolationmode sample-hold
attr source transmissionStateChanged
attr title "Radio transmission state, vector"
vector 81 Wireless_6_5m.hostE.wlan[0].radio transmissionState:vector ETV
attr interpolationmode sample-hold
attr source transmissionStateChanged
attr title "Radio transmission state, vector"
0	0	0	0
0	0	0	0
0	0	0	2
0	22	0.00017	3
0	30	0.000716	2
0	150	0.002098050034	3
0	158	0.002316050034	2
0	200	0.00316208339	3
0	208	0.00338008339	2
0	249	0.004046116746	3
0	257	0.004264116746	2
0	297	0.004970150102	3
0	305	0.005188150102	2
0	344	0.005994183458	3
0	352	0.006212183458	2
0	390	0.007278216814	3
0	398	0.007496216814	2
1	0	0	0
1	0	0	0
1	0	0	2
1	176	0.002606066712	3
1	184	0.003152066712	2
2	0	0	0
2	0	0	0
2	0	0	2
2	124	0.001542033356	3
2	134	0.002088033356	2
3	0	0	0
3	0	0	0
3	0	0	2
3	85	0.000886016678	3
3	101	0.001432016678	2
3	366	0.006722200136	3
3	374	0.007268200136	2
4	0	0	0
4	0	0	0
4	0	0	2
4	273	0.004414133424	3
4	281	0.004960133424	2
5	0	0	0
5	0	0	0
5	0	0	2
5	86	0.000886016678	3
5	102	0.001432016678	2
5	320	0.00543816678	3
5	328	0.00598416678	2
6	0	0	0
6	0	0	0
6	0	0	2
6	225	0.003490100068	3
6	233	0.004036100068	2
7	0	0	1
7	22	0.00017	0
7	30	0.000716	1
7	89	0.000886033356	3
7	103	0.001432033356	1
7	126	0.001542050034	3
7	135	0.002088050034	1
7	150	0.002098050034	0
7	158	0.002316050034	1
7	178	0.00260608339	3
7	185	0.00315208339	1
7	200	0.00316208339	0
7	208	0.00338008339	1
7	227	0.003490116746	3
7	234	0.004036116746	1
7	249	0.004046116746	0
7	257	0.004264116746	1
7	275	0.004414150102	3
7	282	0.004960150102	1
7	297	0.004970150102	0
7	305	0.005188150102	1
7	322	0.005438183458	3
7	329	0.005984183458	1
7	344	0.005994183458	0
7	352	0.006212183458	1
7	368	0.006722216814	3
7	375	0.007268216814	1
7	390	0.007278216814	0
7	398	0.007496216814	1
8	0	0	1
8	24	0.000170016678	3
8	31	0.000716016678	1
8	95	0.000886045565	3
8	113	0.001432045565	1
8	131	0.001542066712	3
8	148	0.002088066712	1
8	152	0.002098066712	3
8	159	0.002316066712	1
8	176	0.002606066712	0
8	184	0.003152066712	1
8	202	0.003162100068	3
8	209	0.003380100068	1
8	228	0.003490116746	3
8	235	0.004036116746	1
8	251	0.004046133424	3
8	258	0.004264133424	1
8	276	0.004414150102	3
8	283	0.004960150102	1
8	299	0.00497016678	3
8	306	0.00518816678	1
8	325	0.005438195667	3
8	338	0.005984195667	1
8	346	0.005994200136	3
8	353	0.006212200136	1
8	371	0.006722229023	3
8	384	0.007268229023	1
8	392	0.007278233492	3
8	399	0.007496233492	1
9	0	0	1
9	25	0.000170016678	3
9	32	0.000716016678	1
9	90	0.000886033356	3
9	104	0.001432033356	1
9	124	0.001542033356	0
9	134	0.002088033356	1
9	153	0.002098066712	3
9	160	0.002316066712	1
9	183	0.002606100068	3
9	198	0.003152100068	1
9	203	0.003162100068	3
9	210	0.003380100068	1
9	230	0.003490128955	3
9	243	0.004036128955	1
9	252	0.004046133424	3
9	259	0.004264133424	1
9	278	0.004414162311	3
9	291	0.004960162311	1
9	300	0.00497016678	3
9	307	0.00518816678	1
9	323	0.005438183458	3
9	330	0.005984183458	1
9	347	0.005994200136	3
9	354	0.006212200136	1
9	369	0.006722216814	3
9	376	0.007268216814	1
9	393	0.007278233492	3
9	400	0.007496233492	1
10	0	0	1
10	26	0.000170016678	3
10	33	0.000716016678	1
10	85	0.000886016678	0
10	101	0.001432016678	2
10	116	0.001432045565	1
10	127	0.001542050034	3
10	136	0.002088050034	1
10	154	0.002098066712	3
10	161	0.002316066712	1
10	181	0.002606095599	3
10	194	0.003152095599	1
10	204	0.003162100068	3
10	211	0.003380100068	1
10	232	0.003490133424	3
10	247	0.004036133424	1
10	253	0.004046133424	3
10	260	0.004264133424	1
10	277	0.004414150102	3
10	284	0.004960150102	1
10	301	0.00497016678	3
10	308	0.00518816678	1
10	326	0.005438195667	3
10	339	0.005984195667	1
10	348	0.005994200136	3
10	355	0.006212200136	1
10	366	0.006722200136	0
10	374	0.007268200136	1
10	394	0.007278233492	3
10	401	0.007496233492	1
11	0	0	1
11	27	0.000170016678	3
11	34	0.000716016678	1
11	91	0.000886033356	3
11	105	0.001432033356	2
11	119	0.001432050034	1
11	129	0.001542062243	3
11	144	0.002088062243	1
11	155	0.002098066712	3
11	162	0.002316066712	1
11	179	0.00260608339	3
11	186	0.00315208339	1
11	205	0.003162100068	3
11	212	0.003380100068	1
11	231	0.003490128955	3
11	244	0.004036128955	1
11	254	0.004046133424	3
11	261	0.004264133424	1
11	273	0.004414133424	0
11	281	0.004960133424	1
11	302	0.00497016678	3
11	309	0.00518816678	1
11	327	0.005438200136	3
11	342	0.005984200136	1
11	349	0.005994200136	3
11	356	0.006212200136	1
11	370	0.006722216814	3
11	377	0.007268216814	1
11	395	0.007278233492	3
11	402	0.007496233492	1
12	0	0	1
12	28	0.000170016678	3
12	35	0.000716016678	1
12	86	0.000886016678	0
12	102	0.001432016678	2
12	114	0.001432045565	1
12	128	0.001542050034	3
12	137	0.002088050034	1
12	156	0.002098066712	3
12	163	0.002316066712	1
12	182	0.002606095599	3
12	195	0.003152095599	1
12	206	0.003162100068	3
12	213	0.003380100068	1
12	229	0.003490116746	3
12	236	0.004036116746	1
12	255	0.004046133424	3
12	262	0.004264133424	1
12	280	0.00441416678	3
12	295	0.00496016678	1
12	303	0.00497016678	3
12	310	0.00518816678	1
12	320	0.00543816678	0
12	328	0.00598416678	1
12	350	0.005994200136	3
12	357	0.006212200136	1
12	372	0.006722229023	3
12	385	0.007268229023	1
12	396	0.007278233492	3
12	403	0.007496233492	1
13	0	0	1
13	29	0.000170016678	3
13	36	0.000716016678	1
13	94	0.000886033356	3
13	108	0.001432033356	2
13	118	0.001432050034	1
13	130	0.001542062243	3
13	145	0.002088062243	1
13	157	0.002098066712	3
13	164	0.002316066712	1
13	180	0.00260608339	3
13	187	0.00315208339	1
13	207	0.003162100068	3
13	214	0.003380100068	1
13	225	0.003490100068	0
13	233	0.004036100068	1
13	256	0.004046133424	3
13	263	0.004264133424	1
13	279	0.004414162311	3
13	292	0.004960162311	1
13	304	0.00497016678	3
13	311	0.00518816678	1
13	324	0.005438183458	3
13	331	0.005984183458	1
13	351	0.005994200136	3
13	358	0.006212200136	1
13	373	0.006722233492	3
13	388	0.007268233492	1
13	397	0.007278233492	3
13	404	0.007496233492	1
14	3	0	12
15	17	0	32
16	17	0	32
17	18	0	59
18	18	0	1
18	18	0	0
19	18	0	59
20	18	0	0
21	20	0	12
21	142	0.002088050034	12
21	192	0.00315208339	12
21	241	0.004036116746	12
21	289	0.004960150102	12
21	336	0.005984183458	12
21	382	0.007268216814	12
22	20	0	1
23	22	0.00017	1
23	23	0.00017	2
23	30	0.000716	1
23	30	0.000716	0
23	150	0.002098050034	1
23	151	0.002098050034	2
23	158	0.002316050034	1
23	158	0.002316050034	0
23	200	0.00316208339	1
23	201	0.00316208339	2
23	208	0.00338008339	1
23	208	0.00338008339	0
23	249	0.004046116746	1
23	250	0.004046116746	2
23	257	0.004264116746	1
23	257	0.004264116746	0
23	297	0.004970150102	1
23	298	0.004970150102	2
23	305	0.005188150102	1
23	305	0.005188150102	0
23	344	0.005994183458	1
23	345	0.005994183458	2
23	352	0.006212183458	1
23	352	0.006212183458	0
23	390	0.007278216814	1
23	391	0.007278216814	2
23	398	0.007496216814	1
23	398	0.007496216814	0
24	49	0.000716016678	12
25	49	0.000716016678	1
26	50	0.000716016678	12
27	50	0.000716016678	1
28	51	0.000716016678	12
29	51	0.000716016678	1
30	52	0.000716016678	12
31	52	0.000716016678	1
32	53	0.000716016678	12
33	53	0.000716016678	1
34	54	0.000716016678	12
35	54	0.000716016678	1
36	61	0.000716016678	12
37	62	0.000716016678	12
38	63	0.000716016678	12
39	64	0.000716016678	12
40	65	0.000716016678	12
41	66	0.000716016678	12
42	73	0.000716016678	59
43	73	0.000716016678	1
43	73	0.000716016678	0
44	73	0.000716016678	59
45	73	0.000716016678	0
46	74	0.000716016678	59
47	74	0.000716016678	1
47	74	0.000716016678	0
48	74	0.000716016678	59
49	74	0.000716016678	0
50	75	0.000716016678	59
51	75	0.000716016678	1
51	75	0.000716016678	0
52	75	0.000716016678	59
53	75	0.000716016678	0
54	76	0.000716016678	59
55	76	0.000716016678	1
55	76	0.000716016678	0
56	76	0.000716016678	59
57	76	0.000716016678	0
58	77	0.000716016678	59
59	77	0.000716016678	1
59	77	0.000716016678	0
60	77	0.000716016678	59
61	77	0.000716016678	0
62	78	0.000716016678	59
63	78	0.000716016678	1
63	78	0.000716016678	0
64	78	0.000716016678	59
65	78	0.000716016678	0
66	85	0.000886016678	1
66	87	0.000886016678	2
66	101	0.001432016678	1
66	101	0.001432016678	0
66	366	0.006722200136	1
66	367	0.006722200136	2
66	374	0.007268200136	1
66	374	0.007268200136	0
67	86	0.000886016678	1
67	88	0.000886016678	2
67	102	0.001432016678	1
67	102	0.001432016678	0
67	320	0.00543816678	1
67	321	0.00543816678	2
67	328	0.00598416678	1
67	328	0.00598416678	0
68	109	0.001432033356	59
69	110	0.001432033356	59
70	111	0.001432033356	59
70	146	0.002088062243	59
70	189	0.00315208339	59
70	246	0.004036128955	59
70	343	0.005984200136	59
70	380	0.007268216814	59
71	112	0.001432033356	59
71	147	0.002088062243	59
71	190	0.00315208339	59
71	294	0.004960162311	59
71	334	0.005984183458	59
71	389	0.007268233492	59
72	117	0.001432045565	59
73	124	0.001542033356	1
73	125	0.001542033356	2
73	134	0.002088033356	1
73	134	0.002088033356	0
74	139	0.002088050034	59
74	196	0.003152095599	59
74	248	0.004036133424	59
74	287	0.004960150102	59
74	341	0.005984195667	59
75	140	0.002088050034	59
75	197	0.003152095599	59
75	239	0.004036116746	59
75	296	0.00496016678	59
75	387	0.007268229023	59
76	142	0.002088050034	1
76	192	0.00315208339	2
76	241	0.004036116746	3
76	289	0.004960150102	4
76	336	0.005984183458	5
76	382	0.007268216814	6
77	149	0.002088066712	59
77	238	0.004036116746	59
77	286	0.004960150102	59
77	340	0.005984195667	59
77	386	0.007268229023	59
78	176	0.002606066712	1
78	177	0.002606066712	2
78	184	0.003152066712	1
78	184	0.003152066712	0
79	199	0.003152100068	59
79	245	0.004036128955	59
79	293	0.004960162311	59
79	333	0.005984183458	59
79	379	0.007268216814	59
80	225	0.003490100068	1
80	226	0.003490100068	2
80	233	0.004036100068	1
80	233	0.004036100068	0
81	273	0.004414133424	1
81	274	0.004414133424	2
81	281	0.004960133424	1
81	281	0.004960133424	0

