version 2
run Wireless01-96-20200710-12:27:49-3103
attr configname Wireless01
attr datetime 20200710-12:27:49
attr experiment Wireless01
attr inifile omnetpp.ini
attr iterationvars $name=Wireless_6_1m
attr iterationvarsf name=Wireless#_6#_1m-
attr measurement $name=Wireless_6_1m
attr network "${name=Wireless_3_1m,Wireless_3_5m, Wireless_3_10m, Wireless_6_1m, Wireless_6_5m, Wireless_6_10m, Wireless_12_1m, Wireless_12_5m, Wireless_12_10m }"
attr processid 3103
attr repetition 6
attr replication #6
attr resultdir results
attr runnumber 96
attr seedset 96
itervar name Wireless_6_1m
param *.hostA.numApps 1
param *.hostA.app[0].typename "\"TDOAApp\""
param *.hostA.app[0].destAddresses "\"Broadcast\""
param *.hostA.app[0].destPort 5000
param *.hostA.app[0].localPort 6000
param *.hostA.app[0].isReceiver false
param *.hostA.app[0].Nome_arquivo "\"Wireless_6_1m.csv\""
param *.host*.numApps 1
param *.host*.app[0].typename "\"TDOAApp\""
param *.host*.app[0].localPort 5000
param *.host*.app[0].destPort 6000
param *.host*.app[0].destAddresses "\"hostA\""
param *.host*.app[0].isReceiver true
param *.host*.wlan[0].typename "\"WirelessInterface\""
param *.radioMedium.typename "\"ApskScalarRadioMedium\""
param *.radioMedium.backgroundNoise.power -90dBm
param *.radioMedium.mediumLimitCache.centerFrequency 2GHz
param *.host*.wlan[0].radio.typename "\"ApskScalarRadio\""
param *.host*.wlan[0].radio.centerFrequency 2GHz
param *.host*.wlan[0].radio.bandwidth 2MHz
param *.host*.wlan[0].radio.transmitter.power 1.4mW
param *.host*.wlan[0].radio.transmitter.preambleDuration 10us
param *.host*.wlan[0].radio.transmitter.headerLength 8B
param *.host*.wlan[0].radio.receiver.sensitivity -85dBm
param *.host*.wlan[0].radio.receiver.energyDetection -85dBm
param *.host*.wlan[0].radio.receiver.snirThreshold 4dB
param *.host*.wlan[0].mac.typename "\"CsmaCaMac\""
param *.host*.wlan[0].mac.ackTimeout 300us
param *.host*.wlan[0].mac.useAck true
param *.host*.wlan[0].mac.fullDuplex false
param *.host*.wlan[0].radio.receiver.ignoreInterference true
param *.host*.wlan[0].mac.headerLength 23B
param *.host*.**.bitrate 1Mbps
param *.host*.ipv4.arp.typename "\"GlobalArp\""
param **.ip.limitedBroadcast true

vector 0 Wireless_6_1m.hostA.wlan[0].radio radioMode:vector ETV
attr interpolationmode sample-hold
attr source radioModeChanged
attr title "Radio mode, vector"
vector 1 Wireless_6_1m.hostB.wlan[0].radio radioMode:vector ETV
attr interpolationmode sample-hold
attr source radioModeChanged
attr title "Radio mode, vector"
vector 2 Wireless_6_1m.hostC.wlan[0].radio radioMode:vector ETV
attr interpolationmode sample-hold
attr source radioModeChanged
attr title "Radio mode, vector"
vector 3 Wireless_6_1m.hostD.wlan[0].radio radioMode:vector ETV
attr interpolationmode sample-hold
attr source radioModeChanged
attr title "Radio mode, vector"
vector 4 Wireless_6_1m.hostE.wlan[0].radio radioMode:vector ETV
attr interpolationmode sample-hold
attr source radioModeChanged
attr title "Radio mode, vector"
vector 5 Wireless_6_1m.hostF.wlan[0].radio radioMode:vector ETV
attr interpolationmode sample-hold
attr source radioModeChanged
attr title "Radio mode, vector"
vector 6 Wireless_6_1m.hostG.wlan[0].radio radioMode:vector ETV
attr interpolationmode sample-hold
attr source radioModeChanged
attr title "Radio mode, vector"
vector 7 Wireless_6_1m.hostA.wlan[0].radio receptionState:vector ETV
attr interpolationmode sample-hold
attr source receptionStateChanged
attr title "Radio reception state, vector"
vector 8 Wireless_6_1m.hostB.wlan[0].radio receptionState:vector ETV
attr interpolationmode sample-hold
attr source receptionStateChanged
attr title "Radio reception state, vector"
vector 9 Wireless_6_1m.hostC.wlan[0].radio receptionState:vector ETV
attr interpolationmode sample-hold
attr source receptionStateChanged
attr title "Radio reception state, vector"
vector 10 Wireless_6_1m.hostD.wlan[0].radio receptionState:vector ETV
attr interpolationmode sample-hold
attr source receptionStateChanged
attr title "Radio reception state, vector"
vector 11 Wireless_6_1m.hostE.wlan[0].radio receptionState:vector ETV
attr interpolationmode sample-hold
attr source receptionStateChanged
attr title "Radio reception state, vector"
vector 12 Wireless_6_1m.hostF.wlan[0].radio receptionState:vector ETV
attr interpolationmode sample-hold
attr source receptionStateChanged
attr title "Radio reception state, vector"
vector 13 Wireless_6_1m.hostG.wlan[0].radio receptionState:vector ETV
attr interpolationmode sample-hold
attr source receptionStateChanged
attr title "Radio reception state, vector"
vector 14 Wireless_6_1m.hostA.udp packetSent:vector(packetBytes) ETV
attr interpolationmode none
attr source packetSent
attr title "packets sent, vector(packetBytes)"
vector 15 Wireless_6_1m.hostA.lo[0].lo rcvdPkFromHl:vector(packetBytes) ETV
attr interpolationmode none
attr source packetReceivedFromUpper
attr title "packets received from higher layer, vector(packetBytes)"
vector 16 Wireless_6_1m.hostA.lo[0].lo passedUpPk:vector(packetBytes) ETV
attr interpolationmode none
attr source packetSentToUpper
attr title "packets passed to higher layer, vector(packetBytes)"
vector 17 Wireless_6_1m.hostA.wlan[0].mac.queue packetPushed:vector(packetBytes) ETV
attr interpolationmode none
attr title "packet pushed, vector(packetBytes)"
vector 18 Wireless_6_1m.hostA.wlan[0].mac.queue queueLength:vector ETV
attr interpolationmode sample-hold
attr source "count(packetPushed) - count(packetPopped) - count(packetRemoved) - count(packetDropped)"
attr title "queue length, vector"
vector 19 Wireless_6_1m.hostA.wlan[0].mac.queue packetPopped:vector(packetBytes) ETV
attr interpolationmode none
attr title "packet popped, vector(packetBytes)"
vector 20 Wireless_6_1m.hostA.wlan[0].mac.queue queueingTime:vector ETV
attr interpolationmode none
attr source queueingTime(packetPopped)
attr title "queueing times, vector"
attr unit s
vector 21 Wireless_6_1m.hostA.udp packetReceived:vector(packetBytes) ETV
attr interpolationmode none
attr source packetReceived
attr title "packets received, vector(packetBytes)"
vector 22 Wireless_6_1m.hostA.udp droppedPkWrongPort:vector(count) ETV
attr interpolationmode none
attr source packetDropReasonIsNoPortFound(packetDropped)
attr title "packets dropped (wrong port), vector(count)"
vector 23 Wireless_6_1m.hostA.wlan[0].radio transmissionState:vector ETV
attr interpolationmode sample-hold
attr source transmissionStateChanged
attr title "Radio transmission state, vector"
vector 24 Wireless_6_1m.hostB.udp packetReceived:vector(packetBytes) ETV
attr interpolationmode none
attr source packetReceived
attr title "packets received, vector(packetBytes)"
vector 25 Wireless_6_1m.hostB.udp passedUpPk:vector(count) ETV
attr interpolationmode none
attr source packetSentToUpper
attr title "packets passed up, vector(count)"
vector 26 Wireless_6_1m.hostC.udp packetReceived:vector(packetBytes) ETV
attr interpolationmode none
attr source packetReceived
attr title "packets received, vector(packetBytes)"
vector 27 Wireless_6_1m.hostC.udp passedUpPk:vector(count) ETV
attr interpolationmode none
attr source packetSentToUpper
attr title "packets passed up, vector(count)"
vector 28 Wireless_6_1m.hostD.udp packetReceived:vector(packetBytes) ETV
attr interpolationmode none
attr source packetReceived
attr title "packets received, vector(packetBytes)"
vector 29 Wireless_6_1m.hostD.udp passedUpPk:vector(count) ETV
attr interpolationmode none
attr source packetSentToUpper
attr title "packets passed up, vector(count)"
vector 30 Wireless_6_1m.hostE.udp packetReceived:vector(packetBytes) ETV
attr interpolationmode none
attr source packetReceived
attr title "packets received, vector(packetBytes)"
vector 31 Wireless_6_1m.hostE.udp passedUpPk:vector(count) ETV
attr interpolationmode none
attr source packetSentToUpper
attr title "packets passed up, vector(count)"
vector 32 Wireless_6_1m.hostF.udp packetReceived:vector(packetBytes) ETV
attr interpolationmode none
attr source packetReceived
attr title "packets received, vector(packetBytes)"
vector 33 Wireless_6_1m.hostF.udp passedUpPk:vector(count) ETV
attr interpolationmode none
attr source packetSentToUpper
attr title "packets passed up, vector(count)"
vector 34 Wireless_6_1m.hostG.udp packetReceived:vector(packetBytes) ETV
attr interpolationmode none
attr source packetReceived
attr title "packets received, vector(packetBytes)"
vector 35 Wireless_6_1m.hostG.udp passedUpPk:vector(count) ETV
attr interpolationmode none
attr source packetSentToUpper
attr title "packets passed up, vector(count)"
vector 36 Wireless_6_1m.hostB.udp packetSent:vector(packetBytes) ETV
attr interpolationmode none
attr source packetSent
attr title "packets sent, vector(packetBytes)"
vector 37 Wireless_6_1m.hostC.udp packetSent:vector(packetBytes) ETV
attr interpolationmode none
attr source packetSent
attr title "packets sent, vector(packetBytes)"
vector 38 Wireless_6_1m.hostD.udp packetSent:vector(packetBytes) ETV
attr interpolationmode none
attr source packetSent
attr title "packets sent, vector(packetBytes)"
vector 39 Wireless_6_1m.hostE.udp packetSent:vector(packetBytes) ETV
attr interpolationmode none
attr source packetSent
attr title "packets sent, vector(packetBytes)"
vector 40 Wireless_6_1m.hostF.udp packetSent:vector(packetBytes) ETV
attr interpolationmode none
attr source packetSent
attr title "packets sent, vector(packetBytes)"
vector 41 Wireless_6_1m.hostG.udp packetSent:vector(packetBytes) ETV
attr interpolationmode none
attr source packetSent
attr title "packets sent, vector(packetBytes)"
vector 42 Wireless_6_1m.hostB.wlan[0].mac.queue packetPushed:vector(packetBytes) ETV
attr interpolationmode none
attr title "packet pushed, vector(packetBytes)"
vector 43 Wireless_6_1m.hostB.wlan[0].mac.queue queueLength:vector ETV
attr interpolationmode sample-hold
attr source "count(packetPushed) - count(packetPopped) - count(packetRemoved) - count(packetDropped)"
attr title "queue length, vector"
vector 44 Wireless_6_1m.hostB.wlan[0].mac.queue packetPopped:vector(packetBytes) ETV
attr interpolationmode none
attr title "packet popped, vector(packetBytes)"
vector 45 Wireless_6_1m.hostB.wlan[0].mac.queue queueingTime:vector ETV
attr interpolationmode none
attr source queueingTime(packetPopped)
attr title "queueing times, vector"
attr unit s
vector 46 Wireless_6_1m.hostC.wlan[0].mac.queue packetPushed:vector(packetBytes) ETV
attr interpolationmode none
attr title "packet pushed, vector(packetBytes)"
vector 47 Wireless_6_1m.hostC.wlan[0].mac.queue queueLength:vector ETV
attr interpolationmode sample-hold
attr source "count(packetPushed) - count(packetPopped) - count(packetRemoved) - count(packetDropped)"
attr title "queue length, vector"
vector 48 Wireless_6_1m.hostC.wlan[0].mac.queue packetPopped:vector(packetBytes) ETV
attr interpolationmode none
attr title "packet popped, vector(packetBytes)"
vector 49 Wireless_6_1m.hostC.wlan[0].mac.queue queueingTime:vector ETV
attr interpolationmode none
attr source queueingTime(packetPopped)
attr title "queueing times, vector"
attr unit s
vector 50 Wireless_6_1m.hostD.wlan[0].mac.queue packetPushed:vector(packetBytes) ETV
attr interpolationmode none
attr title "packet pushed, vector(packetBytes)"
vector 51 Wireless_6_1m.hostD.wlan[0].mac.queue queueLength:vector ETV
attr interpolationmode sample-hold
attr source "count(packetPushed) - count(packetPopped) - count(packetRemoved) - count(packetDropped)"
attr title "queue length, vector"
vector 52 Wireless_6_1m.hostD.wlan[0].mac.queue packetPopped:vector(packetBytes) ETV
attr interpolationmode none
attr title "packet popped, vector(packetBytes)"
vector 53 Wireless_6_1m.hostD.wlan[0].mac.queue queueingTime:vector ETV
attr interpolationmode none
attr source queueingTime(packetPopped)
attr title "queueing times, vector"
attr unit s
vector 54 Wireless_6_1m.hostE.wlan[0].mac.queue packetPushed:vector(packetBytes) ETV
attr interpolationmode none
attr title "packet pushed, vector(packetBytes)"
vector 55 Wireless_6_1m.hostE.wlan[0].mac.queue queueLength:vector ETV
attr interpolationmode sample-hold
attr source "count(packetPushed) - count(packetPopped) - count(packetRemoved) - count(packetDropped)"
attr title "queue length, vector"
vector 56 Wireless_6_1m.hostE.wlan[0].mac.queue packetPopped:vector(packetBytes) ETV
attr interpolationmode none
attr title "packet popped, vector(packetBytes)"
vector 57 Wireless_6_1m.hostE.wlan[0].mac.queue queueingTime:vector ETV
attr interpolationmode none
attr source queueingTime(packetPopped)
attr title "queueing times, vector"
attr unit s
vector 58 Wireless_6_1m.hostF.wlan[0].mac.queue packetPushed:vector(packetBytes) ETV
attr interpolationmode none
attr title "packet pushed, vector(packetBytes)"
vector 59 Wireless_6_1m.hostF.wlan[0].mac.queue queueLength:vector ETV
attr interpolationmode sample-hold
attr source "count(packetPushed) - count(packetPopped) - count(packetRemoved) - count(packetDropped)"
attr title "queue length, vector"
vector 60 Wireless_6_1m.hostF.wlan[0].mac.queue packetPopped:vector(packetBytes) ETV
attr interpolationmode none
attr title "packet popped, vector(packetBytes)"
vector 61 Wireless_6_1m.hostF.wlan[0].mac.queue queueingTime:vector ETV
attr interpolationmode none
attr source queueingTime(packetPopped)
attr title "queueing times, vector"
attr unit s
vector 62 Wireless_6_1m.hostG.wlan[0].mac.queue packetPushed:vector(packetBytes) ETV
attr interpolationmode none
attr title "packet pushed, vector(packetBytes)"
vector 63 Wireless_6_1m.hostG.wlan[0].mac.queue queueLength:vector ETV
attr interpolationmode sample-hold
attr source "count(packetPushed) - count(packetPopped) - count(packetRemoved) - count(packetDropped)"
attr title "queue length, vector"
vector 64 Wireless_6_1m.hostG.wlan[0].mac.queue packetPopped:vector(packetBytes) ETV
attr interpolationmode none
attr title "packet popped, vector(packetBytes)"
vector 65 Wireless_6_1m.hostG.wlan[0].mac.queue queueingTime:vector ETV
attr interpolationmode none
attr source queueingTime(packetPopped)
attr title "queueing times, vector"
attr unit s
vector 66 Wireless_6_1m.hostC.wlan[0].radio transmissionState:vector ETV
attr interpolationmode sample-hold
attr source transmissionStateChanged
attr title "Radio transmission state, vector"
vector 67 Wireless_6_1m.hostD.wlan[0].mac packetDropNotAddressedToUs:vector(packetBytes) ETV
attr interpolationmode none
attr source packetDropReasonIsNotAddressedToUs(packetDropped)
attr title "packet drop: not addressed to us, vector(packetBytes)"
vector 68 Wireless_6_1m.hostF.wlan[0].mac packetDropNotAddressedToUs:vector(packetBytes) ETV
attr interpolationmode none
attr source packetDropReasonIsNotAddressedToUs(packetDropped)
attr title "packet drop: not addressed to us, vector(packetBytes)"
vector 69 Wireless_6_1m.hostA.udp passedUpPk:vector(count) ETV
attr interpolationmode none
attr source packetSentToUpper
attr title "packets passed up, vector(count)"
vector 70 Wireless_6_1m.hostE.wlan[0].mac packetDropNotAddressedToUs:vector(packetBytes) ETV
attr interpolationmode none
attr source packetDropReasonIsNotAddressedToUs(packetDropped)
attr title "packet drop: not addressed to us, vector(packetBytes)"
vector 71 Wireless_6_1m.hostG.wlan[0].mac packetDropNotAddressedToUs:vector(packetBytes) ETV
attr interpolationmode none
attr source packetDropReasonIsNotAddressedToUs(packetDropped)
attr title "packet drop: not addressed to us, vector(packetBytes)"
vector 72 Wireless_6_1m.hostB.wlan[0].mac packetDropNotAddressedToUs:vector(packetBytes) ETV
attr interpolationmode none
attr source packetDropReasonIsNotAddressedToUs(packetDropped)
attr title "packet drop: not addressed to us, vector(packetBytes)"
vector 73 Wireless_6_1m.hostD.wlan[0].radio transmissionState:vector ETV
attr interpolationmode sample-hold
attr source transmissionStateChanged
attr title "Radio transmission state, vector"
vector 74 Wireless_6_1m.hostG.wlan[0].radio transmissionState:vector ETV
attr interpolationmode sample-hold
attr source transmissionStateChanged
attr title "Radio transmission state, vector"
vector 75 Wireless_6_1m.hostA.wlan[0].mac packetDropIncorrectlyReceived:vector(packetBytes) ETV
attr interpolationmode none
attr source packetDropReasonIsIncorrectlyReceived(packetDropped)
attr title "packet drop: incorrectly received, vector(packetBytes)"
vector 76 Wireless_6_1m.hostC.wlan[0].mac packetDropNotAddressedToUs:vector(packetBytes) ETV
attr interpolationmode none
attr source packetDropReasonIsNotAddressedToUs(packetDropped)
attr title "packet drop: not addressed to us, vector(packetBytes)"
vector 77 Wireless_6_1m.hostF.wlan[0].radio transmissionState:vector ETV
attr interpolationmode sample-hold
attr source transmissionStateChanged
attr title "Radio transmission state, vector"
vector 78 Wireless_6_1m.hostB.wlan[0].radio transmissionState:vector ETV
attr interpolationmode sample-hold
attr source transmissionStateChanged
attr title "Radio transmission state, vector"
vector 79 Wireless_6_1m.hostE.wlan[0].radio transmissionState:vector ETV
attr interpolationmode sample-hold
attr source transmissionStateChanged
attr title "Radio transmission state, vector"
vector 80 Wireless_6_1m.hostF.wlan[0].mac packetDropIncorrectlyReceived:vector(packetBytes) ETV
attr interpolationmode none
attr source packetDropReasonIsIncorrectlyReceived(packetDropped)
attr title "packet drop: incorrectly received, vector(packetBytes)"
vector 81 Wireless_6_1m.hostC.wlan[0].mac packetDropIncorrectlyReceived:vector(packetBytes) ETV
attr interpolationmode none
attr source packetDropReasonIsIncorrectlyReceived(packetDropped)
attr title "packet drop: incorrectly received, vector(packetBytes)"
0	0	0	0
0	0	0	0
0	0	0	2
0	22	0.00041	3
0	30	0.000956	2
0	109	0.001862006672	3
0	117	0.002080006672	2
0	199	0.003462019121	3
0	207	0.003680019121	2
0	289	0.005422025793	3
0	297	0.005640025793	2
0	337	0.006326032465	3
0	345	0.006544032465	2
0	384	0.007350039137	3
0	392	0.007568039137	2
0	430	0.008494045809	3
0	438	0.008712045809	2
1	0	0	0
1	0	0	0
1	0	0	2
1	224	0.003770022457	3
1	240	0.004316022457	2
1	313	0.005770029129	3
1	321	0.006316029129	2
2	0	0	0
2	0	0	0
2	0	0	2
2	85	0.001306003336	3
2	93	0.001852003336	2
3	0	0	0
3	0	0	0
3	0	0	2
3	135	0.002230010008	3
3	151	0.002776010008	2
3	406	0.007938042473	3
3	414	0.008484042473	2
4	0	0	0
4	0	0	0
4	0	0	2
4	225	0.003770022457	3
4	241	0.004316022457	2
4	265	0.004866022457	3
4	273	0.005412022457	2
5	0	0	0
5	0	0	0
5	0	0	2
5	173	0.002906015785	3
5	183	0.003452015785	2
6	0	0	0
6	0	0	0
6	0	0	2
6	136	0.002230010008	3
6	152	0.002776010008	2
6	360	0.006794035801	3
6	368	0.007340035801	2
7	0	0	1
7	22	0.00041	0
7	30	0.000956	1
7	87	0.001306006672	3
7	94	0.001852006672	1
7	109	0.001862006672	0
7	117	0.002080006672	1
7	139	0.002230013344	3
7	153	0.002776013344	1
7	175	0.002906019121	3
7	184	0.003452019121	1
7	199	0.003462019121	0
7	207	0.003680019121	1
7	228	0.003770025793	3
7	242	0.004316025793	1
7	267	0.004866025793	3
7	274	0.005412025793	1
7	289	0.005422025793	0
7	297	0.005640025793	1
7	315	0.005770032465	3
7	322	0.006316032465	1
7	337	0.006326032465	0
7	345	0.006544032465	1
7	362	0.006794039137	3
7	369	0.007340039137	1
7	384	0.007350039137	0
7	392	0.007568039137	1
7	408	0.007938045809	3
7	415	0.008484045809	1
7	430	0.008494045809	0
7	438	0.008712045809	1
8	0	0	1
8	24	0.000410003336	3
8	31	0.000956003336	1
8	92	0.001306010007	3
8	107	0.001852010007	1
8	111	0.001862010008	3
8	118	0.002080010008	1
8	143	0.002230013344	3
8	157	0.002776013344	2
8	164	0.002776015785	1
8	178	0.002906021562	3
8	193	0.003452021562	1
8	201	0.003462022457	3
8	208	0.003680022457	1
8	224	0.003770022457	0
8	240	0.004316022457	2
8	246	0.004316025793	1
8	268	0.004866025793	3
8	275	0.005412025793	1
8	291	0.005422029129	3
8	298	0.005640029129	1
8	313	0.005770029129	0
8	321	0.006316029129	1
8	339	0.006326035801	3
8	346	0.006544035801	1
8	363	0.006794039137	3
8	370	0.007340039137	1
8	386	0.007350042473	3
8	393	0.007568042473	1
8	411	0.00793804825	3
8	424	0.00848404825	1
8	432	0.008494049145	3
8	439	0.008712049145	1
9	0	0	1
9	25	0.000410003336	3
9	32	0.000956003336	1
9	85	0.001306003336	0
9	93	0.001852003336	1
9	112	0.001862010008	3
9	119	0.002080010008	1
9	140	0.002230013344	3
9	154	0.002776013344	2
9	166	0.002776015785	1
9	176	0.002906019121	3
9	185	0.003452019121	1
9	202	0.003462022457	3
9	209	0.003680022457	1
9	236	0.003770028234	3
9	253	0.004316028234	2
9	257	0.004316029128	1
9	270	0.004866028234	3
9	283	0.005412028234	1
9	292	0.005422029129	3
9	299	0.005640029129	1
9	320	0.0057700358	3
9	335	0.0063160358	1
9	340	0.006326035801	3
9	347	0.006544035801	1
9	365	0.006794041578	3
9	378	0.007340041578	1
9	387	0.007350042473	3
9	394	0.007568042473	1
9	409	0.007938045809	3
9	416	0.008484045809	1
9	433	0.008494049145	3
9	440	0.008712049145	1
10	0	0	1
10	26	0.000410003336	3
10	33	0.000956003336	1
10	88	0.001306006672	3
10	95	0.001852006672	1
10	113	0.001862010008	3
10	120	0.002080010008	1
10	135	0.002230010008	0
10	151	0.002776010008	2
10	169	0.002776016679	1
10	179	0.002906021562	3
10	194	0.003452021562	1
10	203	0.003462022457	3
10	210	0.003680022457	1
10	233	0.003770025793	3
10	247	0.004316025793	2
10	251	0.004316028234	1
10	269	0.004866025793	3
10	276	0.005412025793	1
10	293	0.005422029129	3
10	300	0.005640029129	1
10	318	0.005770034906	3
10	331	0.006316034906	1
10	341	0.006326035801	3
10	348	0.006544035801	1
10	367	0.006794042472	3
10	382	0.007340042472	1
10	388	0.007350042473	3
10	395	0.007568042473	1
10	406	0.007938042473	0
10	414	0.008484042473	1
10	434	0.008494049145	3
10	441	0.008712049145	1
11	0	0	1
11	27	0.000410003336	3
11	34	0.000956003336	1
11	90	0.001306009113	3
11	103	0.001852009113	1
11	114	0.001862010008	3
11	121	0.002080010008	1
11	141	0.002230013344	3
11	155	0.002776013344	2
11	167	0.002776015785	1
11	180	0.002906022456	3
11	197	0.003452022456	1
11	204	0.003462022457	3
11	211	0.003680022457	1
11	225	0.003770022457	0
11	241	0.004316022457	2
11	243	0.004316025793	1
11	265	0.004866022457	0
11	273	0.005412022457	1
11	294	0.005422029129	3
11	301	0.005640029129	1
11	316	0.005770032465	3
11	323	0.006316032465	1
11	342	0.006326035801	3
11	349	0.006544035801	1
11	366	0.006794041578	3
11	379	0.007340041578	1
11	389	0.007350042473	3
11	396	0.007568042473	1
11	410	0.007938045809	3
11	417	0.008484045809	1
11	435	0.008494049145	3
11	442	0.008712049145	1
12	0	0	1
12	28	0.000410003336	3
12	35	0.000956003336	1
12	89	0.001306006672	3
12	96	0.001852006672	1
12	115	0.001862010008	3
12	122	0.002080010008	1
12	144	0.002230013344	3
12	158	0.002776013344	2
12	165	0.002776015785	1
12	173	0.002906015785	0
12	183	0.003452015785	1
12	205	0.003462022457	3
12	212	0.003680022457	1
12	235	0.003770028234	3
12	252	0.004316028234	2
12	258	0.004316029128	1
12	272	0.004866029128	3
12	287	0.005412029128	1
12	295	0.005422029129	3
12	302	0.005640029129	1
12	319	0.005770034906	3
12	332	0.006316034906	1
12	343	0.006326035801	3
12	350	0.006544035801	1
12	364	0.006794039137	3
12	371	0.007340039137	1
12	390	0.007350042473	3
12	397	0.007568042473	1
12	412	0.00793804825	3
12	425	0.00848404825	1
12	436	0.008494049145	3
12	443	0.008712049145	1
13	0	0	1
13	29	0.000410003336	3
13	36	0.000956003336	1
13	91	0.001306009113	3
13	104	0.001852009113	1
13	116	0.001862010008	3
13	123	0.002080010008	1
13	136	0.002230010008	0
13	152	0.002776010008	2
13	168	0.002776016679	1
13	177	0.002906019121	3
13	186	0.003452019121	1
13	206	0.003462022457	3
13	213	0.003680022457	1
13	230	0.003770025793	3
13	244	0.004316025793	2
13	254	0.004316028234	1
13	271	0.004866028234	3
13	284	0.005412028234	1
13	296	0.005422029129	3
13	303	0.005640029129	1
13	317	0.005770032465	3
13	324	0.006316032465	1
13	344	0.006326035801	3
13	351	0.006544035801	1
13	360	0.006794035801	0
13	368	0.007340035801	1
13	391	0.007350042473	3
13	398	0.007568042473	1
13	413	0.007938049144	3
13	428	0.008484049144	1
13	437	0.008494049145	3
13	444	0.008712049145	1
14	3	0	12
15	17	0	32
16	17	0	32
17	18	0	59
18	18	0	1
18	18	0	0
19	18	0	59
20	18	0	0
21	20	0	12
21	101	0.001852006672	12
21	191	0.003452019121	12
21	281	0.005412025793	12
21	329	0.006316032465	12
21	376	0.007340039137	12
21	422	0.008484045809	12
22	20	0	1
23	22	0.00041	1
23	23	0.00041	2
23	30	0.000956	1
23	30	0.000956	0
23	109	0.001862006672	1
23	110	0.001862006672	2
23	117	0.002080006672	1
23	117	0.002080006672	0
23	199	0.003462019121	1
23	200	0.003462019121	2
23	207	0.003680019121	1
23	207	0.003680019121	0
23	289	0.005422025793	1
23	290	0.005422025793	2
23	297	0.005640025793	1
23	297	0.005640025793	0
23	337	0.006326032465	1
23	338	0.006326032465	2
23	345	0.006544032465	1
23	345	0.006544032465	0
23	384	0.007350039137	1
23	385	0.007350039137	2
23	392	0.007568039137	1
23	392	0.007568039137	0
23	430	0.008494045809	1
23	431	0.008494045809	2
23	438	0.008712045809	1
23	438	0.008712045809	0
24	49	0.000956003336	12
25	49	0.000956003336	1
26	50	0.000956003336	12
27	50	0.000956003336	1
28	51	0.000956003336	12
29	51	0.000956003336	1
30	52	0.000956003336	12
31	52	0.000956003336	1
32	53	0.000956003336	12
33	53	0.000956003336	1
34	54	0.000956003336	12
35	54	0.000956003336	1
36	61	0.000956003336	12
37	62	0.000956003336	12
38	63	0.000956003336	12
39	64	0.000956003336	12
40	65	0.000956003336	12
41	66	0.000956003336	12
42	73	0.000956003336	59
43	73	0.000956003336	1
43	73	0.000956003336	0
44	73	0.000956003336	59
45	73	0.000956003336	0
46	74	0.000956003336	59
47	74	0.000956003336	1
47	74	0.000956003336	0
48	74	0.000956003336	59
49	74	0.000956003336	0
50	75	0.000956003336	59
51	75	0.000956003336	1
51	75	0.000956003336	0
52	75	0.000956003336	59
53	75	0.000956003336	0
54	76	0.000956003336	59
55	76	0.000956003336	1
55	76	0.000956003336	0
56	76	0.000956003336	59
57	76	0.000956003336	0
58	77	0.000956003336	59
59	77	0.000956003336	1
59	77	0.000956003336	0
60	77	0.000956003336	59
61	77	0.000956003336	0
62	78	0.000956003336	59
63	78	0.000956003336	1
63	78	0.000956003336	0
64	78	0.000956003336	59
65	78	0.000956003336	0
66	85	0.001306003336	1
66	86	0.001306003336	2
66	93	0.001852003336	1
66	93	0.001852003336	0
67	98	0.001852006672	59
67	196	0.003452021562	59
67	250	0.004316025793	59
67	279	0.005412025793	59
67	333	0.006316034906	59
67	383	0.007340042472	59
68	99	0.001852006672	59
68	163	0.002776013344	59
68	288	0.005412029128	59
68	334	0.006316034906	59
68	374	0.007340039137	59
68	427	0.00848404825	59
69	101	0.001852006672	1
69	191	0.003452019121	2
69	281	0.005412025793	3
69	329	0.006316032465	4
69	376	0.007340039137	5
69	422	0.008484045809	6
70	105	0.001852009113	59
70	161	0.002776013344	59
70	198	0.003452022456	59
70	326	0.006316032465	59
70	381	0.007340041578	59
70	420	0.008484045809	59
71	106	0.001852009113	59
71	189	0.003452019121	59
71	249	0.004316025793	59
71	286	0.005412028234	59
71	327	0.006316032465	59
71	429	0.008484049144	59
72	108	0.001852010007	59
72	162	0.002776013344	59
72	195	0.003452021562	59
72	278	0.005412025793	59
72	373	0.007340039137	59
72	426	0.00848404825	59
73	135	0.002230010008	1
73	137	0.002230010008	2
73	151	0.002776010008	1
73	151	0.002776010008	0
73	406	0.007938042473	1
73	407	0.007938042473	2
73	414	0.008484042473	1
73	414	0.008484042473	0
74	136	0.002230010008	1
74	138	0.002230010008	2
74	152	0.002776010008	1
74	152	0.002776010008	0
74	360	0.006794035801	1
74	361	0.006794035801	2
74	368	0.007340035801	1
74	368	0.007340035801	0
75	159	0.002776013344	59
75	248	0.004316025793	59
76	160	0.002776013344	59
76	188	0.003452019121	59
76	285	0.005412028234	59
76	336	0.0063160358	59
76	380	0.007340041578	59
76	419	0.008484045809	59
77	173	0.002906015785	1
77	174	0.002906015785	2
77	183	0.003452015785	1
77	183	0.003452015785	0
78	224	0.003770022457	1
78	226	0.003770022457	2
78	240	0.004316022457	1
78	240	0.004316022457	0
78	313	0.005770029129	1
78	314	0.005770029129	2
78	321	0.006316029129	1
78	321	0.006316029129	0
79	225	0.003770022457	1
79	227	0.003770022457	2
79	241	0.004316022457	1
79	241	0.004316022457	0
79	265	0.004866022457	1
79	266	0.004866022457	2
79	273	0.005412022457	1
79	273	0.005412022457	0
80	255	0.004316028234	59
81	256	0.004316028234	59

