file 15157 1594422118                                           
version 2
run Wireless01-77-20200710-20:01:58-2822
attr configname Wireless01
attr datetime 20200710-20:01:58
attr experiment Wireless01
attr inifile omnetpp.ini
attr iterationvars $name=Wireless_3_10m
attr iterationvarsf name=Wireless#_3#_10m-
attr measurement $name=Wireless_3_10m
attr network "${name=Wireless_3_1m,Wireless_3_5m, Wireless_3_10m, Wireless_6_1m, Wireless_6_5m, Wireless_6_10m, Wireless_12_1m, Wireless_12_5m, Wireless_12_10m }"
attr processid 2822
attr repetition 17
attr replication #17
attr resultdir results
attr runnumber 77
attr seedset 77
itervar name Wireless_3_10m
param *.hostA.numApps 1
param *.hostA.app[0].typename "\"TDOAApp\""
param *.hostA.app[0].destAddresses "\"Broadcast\""
param *.hostA.app[0].destPort 5000
param *.hostA.app[0].localPort 6000
param *.hostA.app[0].isReceiver false
param *.hostA.app[0].Nome_arquivo "\"Wireless_3_10m.csv\""
param *.host*.numApps 1
param *.host*.app[0].typename "\"TDOAApp\""
param *.host*.app[0].localPort 5000
param *.host*.app[0].destPort 6000
param *.host*.app[0].destAddresses "\"hostA\""
param *.host*.app[0].isReceiver true
param *.host*.wlan[0].typename "\"WirelessInterface\""
param *.radioMedium.typename "\"ApskScalarRadioMedium\""
param *.radioMedium.backgroundNoise.power -90dBm
param *.radioMedium.mediumLimitCache.centerFrequency 2GHz
param *.host*.wlan[0].radio.typename "\"ApskScalarRadio\""
param *.host*.wlan[0].radio.centerFrequency 2GHz
param *.host*.wlan[0].radio.bandwidth 2MHz
param *.host*.wlan[0].radio.transmitter.power 1.4mW
param *.host*.wlan[0].radio.transmitter.preambleDuration 10us
param *.host*.wlan[0].radio.transmitter.headerLength 8B
param *.host*.wlan[0].radio.receiver.sensitivity -85dBm
param *.host*.wlan[0].radio.receiver.energyDetection -85dBm
param *.host*.wlan[0].radio.receiver.snirThreshold 4dB
param *.host*.wlan[0].mac.typename "\"CsmaCaMac\""
param *.host*.wlan[0].mac.ackTimeout 300us
param *.host*.wlan[0].mac.useAck true
param *.host*.wlan[0].mac.fullDuplex false
param *.host*.wlan[0].radio.receiver.ignoreInterference true
param *.host*.wlan[0].mac.headerLength 23B
param *.host*.**.bitrate 1Mbps
param *.host*.ipv4.arp.typename "\"GlobalArp\""
param **.ip.limitedBroadcast true

vector 0 Wireless_3_10m.hostA.wlan[0].radio radioMode:vector ETV
attr interpolationmode sample-hold
attr source radioModeChanged
attr title "Radio mode, vector"
vector 1 Wireless_3_10m.hostB.wlan[0].radio radioMode:vector ETV
attr interpolationmode sample-hold
attr source radioModeChanged
attr title "Radio mode, vector"
vector 2 Wireless_3_10m.hostC.wlan[0].radio radioMode:vector ETV
attr interpolationmode sample-hold
attr source radioModeChanged
attr title "Radio mode, vector"
vector 3 Wireless_3_10m.hostD.wlan[0].radio radioMode:vector ETV
attr interpolationmode sample-hold
attr source radioModeChanged
attr title "Radio mode, vector"
vector 4 Wireless_3_10m.hostA.wlan[0].radio receptionState:vector ETV
attr interpolationmode sample-hold
attr source receptionStateChanged
attr title "Radio reception state, vector"
vector 5 Wireless_3_10m.hostB.wlan[0].radio receptionState:vector ETV
attr interpolationmode sample-hold
attr source receptionStateChanged
attr title "Radio reception state, vector"
vector 6 Wireless_3_10m.hostC.wlan[0].radio receptionState:vector ETV
attr interpolationmode sample-hold
attr source receptionStateChanged
attr title "Radio reception state, vector"
vector 7 Wireless_3_10m.hostD.wlan[0].radio receptionState:vector ETV
attr interpolationmode sample-hold
attr source receptionStateChanged
attr title "Radio reception state, vector"
vector 8 Wireless_3_10m.hostA.udp packetSent:vector(packetBytes) ETV
attr interpolationmode none
attr source packetSent
attr title "packets sent, vector(packetBytes)"
vector 9 Wireless_3_10m.hostA.lo[0].lo rcvdPkFromHl:vector(packetBytes) ETV
attr interpolationmode none
attr source packetReceivedFromUpper
attr title "packets received from higher layer, vector(packetBytes)"
vector 10 Wireless_3_10m.hostA.lo[0].lo passedUpPk:vector(packetBytes) ETV
attr interpolationmode none
attr source packetSentToUpper
attr title "packets passed to higher layer, vector(packetBytes)"
vector 11 Wireless_3_10m.hostA.wlan[0].mac.queue packetPushed:vector(packetBytes) ETV
attr interpolationmode none
attr title "packet pushed, vector(packetBytes)"
vector 12 Wireless_3_10m.hostA.wlan[0].mac.queue queueLength:vector ETV
attr interpolationmode sample-hold
attr source "count(packetPushed) - count(packetPopped) - count(packetRemoved) - count(packetDropped)"
attr title "queue length, vector"
vector 13 Wireless_3_10m.hostA.wlan[0].mac.queue packetPopped:vector(packetBytes) ETV
attr interpolationmode none
attr title "packet popped, vector(packetBytes)"
vector 14 Wireless_3_10m.hostA.wlan[0].mac.queue queueingTime:vector ETV
attr interpolationmode none
attr source queueingTime(packetPopped)
attr title "queueing times, vector"
attr unit s
vector 15 Wireless_3_10m.hostA.udp packetReceived:vector(packetBytes) ETV
attr interpolationmode none
attr source packetReceived
attr title "packets received, vector(packetBytes)"
vector 16 Wireless_3_10m.hostA.udp droppedPkWrongPort:vector(count) ETV
attr interpolationmode none
attr source packetDropReasonIsNoPortFound(packetDropped)
attr title "packets dropped (wrong port), vector(count)"
vector 17 Wireless_3_10m.hostA.wlan[0].radio transmissionState:vector ETV
attr interpolationmode sample-hold
attr source transmissionStateChanged
attr title "Radio transmission state, vector"
vector 18 Wireless_3_10m.hostB.udp packetReceived:vector(packetBytes) ETV
attr interpolationmode none
attr source packetReceived
attr title "packets received, vector(packetBytes)"
vector 19 Wireless_3_10m.hostB.udp passedUpPk:vector(count) ETV
attr interpolationmode none
attr source packetSentToUpper
attr title "packets passed up, vector(count)"
vector 20 Wireless_3_10m.hostC.udp packetReceived:vector(packetBytes) ETV
attr interpolationmode none
attr source packetReceived
attr title "packets received, vector(packetBytes)"
vector 21 Wireless_3_10m.hostC.udp passedUpPk:vector(count) ETV
attr interpolationmode none
attr source packetSentToUpper
attr title "packets passed up, vector(count)"
vector 22 Wireless_3_10m.hostD.udp packetReceived:vector(packetBytes) ETV
attr interpolationmode none
attr source packetReceived
attr title "packets received, vector(packetBytes)"
vector 23 Wireless_3_10m.hostD.udp passedUpPk:vector(count) ETV
attr interpolationmode none
attr source packetSentToUpper
attr title "packets passed up, vector(count)"
vector 24 Wireless_3_10m.hostB.udp packetSent:vector(packetBytes) ETV
attr interpolationmode none
attr source packetSent
attr title "packets sent, vector(packetBytes)"
vector 25 Wireless_3_10m.hostC.udp packetSent:vector(packetBytes) ETV
attr interpolationmode none
attr source packetSent
attr title "packets sent, vector(packetBytes)"
vector 26 Wireless_3_10m.hostD.udp packetSent:vector(packetBytes) ETV
attr interpolationmode none
attr source packetSent
attr title "packets sent, vector(packetBytes)"
vector 27 Wireless_3_10m.hostB.wlan[0].mac.queue packetPushed:vector(packetBytes) ETV
attr interpolationmode none
attr title "packet pushed, vector(packetBytes)"
vector 28 Wireless_3_10m.hostB.wlan[0].mac.queue queueLength:vector ETV
attr interpolationmode sample-hold
attr source "count(packetPushed) - count(packetPopped) - count(packetRemoved) - count(packetDropped)"
attr title "queue length, vector"
vector 29 Wireless_3_10m.hostB.wlan[0].mac.queue packetPopped:vector(packetBytes) ETV
attr interpolationmode none
attr title "packet popped, vector(packetBytes)"
vector 30 Wireless_3_10m.hostB.wlan[0].mac.queue queueingTime:vector ETV
attr interpolationmode none
attr source queueingTime(packetPopped)
attr title "queueing times, vector"
attr unit s
vector 31 Wireless_3_10m.hostC.wlan[0].mac.queue packetPushed:vector(packetBytes) ETV
attr interpolationmode none
attr title "packet pushed, vector(packetBytes)"
vector 32 Wireless_3_10m.hostC.wlan[0].mac.queue queueLength:vector ETV
attr interpolationmode sample-hold
attr source "count(packetPushed) - count(packetPopped) - count(packetRemoved) - count(packetDropped)"
attr title "queue length, vector"
vector 33 Wireless_3_10m.hostC.wlan[0].mac.queue packetPopped:vector(packetBytes) ETV
attr interpolationmode none
attr title "packet popped, vector(packetBytes)"
vector 34 Wireless_3_10m.hostC.wlan[0].mac.queue queueingTime:vector ETV
attr interpolationmode none
attr source queueingTime(packetPopped)
attr title "queueing times, vector"
attr unit s
vector 35 Wireless_3_10m.hostD.wlan[0].mac.queue packetPushed:vector(packetBytes) ETV
attr interpolationmode none
attr title "packet pushed, vector(packetBytes)"
vector 36 Wireless_3_10m.hostD.wlan[0].mac.queue queueLength:vector ETV
attr interpolationmode sample-hold
attr source "count(packetPushed) - count(packetPopped) - count(packetRemoved) - count(packetDropped)"
attr title "queue length, vector"
vector 37 Wireless_3_10m.hostD.wlan[0].mac.queue packetPopped:vector(packetBytes) ETV
attr interpolationmode none
attr title "packet popped, vector(packetBytes)"
vector 38 Wireless_3_10m.hostD.wlan[0].mac.queue queueingTime:vector ETV
attr interpolationmode none
attr source queueingTime(packetPopped)
attr title "queueing times, vector"
attr unit s
vector 39 Wireless_3_10m.hostB.wlan[0].radio transmissionState:vector ETV
attr interpolationmode sample-hold
attr source transmissionStateChanged
attr title "Radio transmission state, vector"
vector 40 Wireless_3_10m.hostD.wlan[0].radio transmissionState:vector ETV
attr interpolationmode sample-hold
attr source transmissionStateChanged
attr title "Radio transmission state, vector"
vector 41 Wireless_3_10m.hostA.wlan[0].mac packetDropIncorrectlyReceived:vector(packetBytes) ETV
attr interpolationmode none
attr source packetDropReasonIsIncorrectlyReceived(packetDropped)
attr title "packet drop: incorrectly received, vector(packetBytes)"
vector 42 Wireless_3_10m.hostC.wlan[0].mac packetDropIncorrectlyReceived:vector(packetBytes) ETV
attr interpolationmode none
attr source packetDropReasonIsIncorrectlyReceived(packetDropped)
attr title "packet drop: incorrectly received, vector(packetBytes)"
vector 43 Wireless_3_10m.hostC.wlan[0].radio transmissionState:vector ETV
attr interpolationmode sample-hold
attr source transmissionStateChanged
attr title "Radio transmission state, vector"
vector 44 Wireless_3_10m.hostA.udp passedUpPk:vector(count) ETV
attr interpolationmode none
attr source packetSentToUpper
attr title "packets passed up, vector(count)"
vector 45 Wireless_3_10m.hostD.wlan[0].mac packetDropNotAddressedToUs:vector(packetBytes) ETV
attr interpolationmode none
attr source packetDropReasonIsNotAddressedToUs(packetDropped)
attr title "packet drop: not addressed to us, vector(packetBytes)"
vector 46 Wireless_3_10m.hostB.wlan[0].mac packetDropNotAddressedToUs:vector(packetBytes) ETV
attr interpolationmode none
attr source packetDropReasonIsNotAddressedToUs(packetDropped)
attr title "packet drop: not addressed to us, vector(packetBytes)"
vector 47 Wireless_3_10m.hostC.wlan[0].mac packetDropNotAddressedToUs:vector(packetBytes) ETV
attr interpolationmode none
attr source packetDropReasonIsNotAddressedToUs(packetDropped)
attr title "packet drop: not addressed to us, vector(packetBytes)"
0	11318 191 0 151 0 0.005484266849 11 0 3 22 56
1	11509 114 0 136 0 0.005256233493 7 0 3 12 30
2	11623 68 0 79 0 0.002608100069 5 0 3 7 17
3	11691 114 0 108 0 0.004312166781 7 0 3 12 30
4	11805 355 0 151 0 0.005484266849 17 0 3 21 45
5	12160 390 0 152 0 0.005484300205 18 0 3 29 67
6	12550 390 0 153 0 0.005484300205 18 0 3 32 76
7	12940 390 0 154 0 0.005484300205 18 0 3 29 67
8	13330 9 3 3 0 0 1 12 12 12 144
9	13339 10 11 11 0 0 1 32 32 32 1024
10	13349 11 11 11 0 0 1 32 32 32 1024
11	13360 11 12 12 0 0 1 59 59 59 3481
12	13371 20 12 12 0 0 2 0 1 1 1
13	13391 11 12 12 0 0 1 59 59 59 3481
14	13402 10 12 12 0 0 1 0 0 0 0
15	13412 85 14 140 0 0.005256266849 4 12 12 48 576
16	13497 10 14 14 0 0 1 1 1 1 1
17	13507 350 16 151 0.00043 0.005484266849 16 0 2 16 24
18	13857 24 31 31 0.000976033356 0.000976033356 1 12 12 12 144
19	13881 23 31 31 0.000976033356 0.000976033356 1 1 1 1 1
20	13904 24 32 32 0.000976033356 0.000976033356 1 12 12 12 144
21	13928 23 32 32 0.000976033356 0.000976033356 1 1 1 1 1
22	13951 24 33 33 0.000976033356 0.000976033356 1 12 12 12 144
23	13975 23 33 33 0.000976033356 0.000976033356 1 1 1 1 1
24	13998 24 37 37 0.000976033356 0.000976033356 1 12 12 12 144
25	14022 24 38 38 0.000976033356 0.000976033356 1 12 12 12 144
26	14046 24 39 39 0.000976033356 0.000976033356 1 12 12 12 144
27	14070 24 43 43 0.000976033356 0.000976033356 1 59 59 59 3481
28	14094 46 43 43 0.000976033356 0.000976033356 2 0 1 1 1
29	14140 24 43 43 0.000976033356 0.000976033356 1 59 59 59 3481
30	14164 23 43 43 0.000976033356 0.000976033356 1 0 0 0 0
31	14187 24 44 44 0.000976033356 0.000976033356 1 59 59 59 3481
32	14211 46 44 44 0.000976033356 0.000976033356 2 0 1 1 1
33	14257 24 44 44 0.000976033356 0.000976033356 1 59 59 59 3481
34	14281 23 44 44 0.000976033356 0.000976033356 1 0 0 0 0
35	14304 24 45 45 0.000976033356 0.000976033356 1 59 59 59 3481
36	14328 46 45 45 0.000976033356 0.000976033356 2 0 1 1 1
37	14374 24 45 45 0.000976033356 0.000976033356 1 59 59 59 3481
38	14398 23 45 45 0.000976033356 0.000976033356 1 0 0 0 0
39	14421 188 49 136 0.001106033356 0.005256233493 8 0 2 8 12
40	14609 188 50 108 0.001106033356 0.004312166781 8 0 2 8 12
41	14797 24 63 63 0.001652066712 0.001652066712 1 59 59 59 3481
42	14821 24 67 67 0.001652080529 0.001652080529 1 59 59 59 3481
43	14845 92 74 79 0.002062100069 0.002608100069 4 0 2 4 6
44	14937 71 83 140 0.002608133425 0.005256266849 3 1 3 6 14
45	15008 49 86 143 0.002608147242 0.005256280666 2 59 59 118 6962
46	15057 49 88 116 0.002608166782 0.004312213954 2 59 59 118 6962
47	15106 50 117 145 0.004312213954 0.005256300206 2 59 59 118 6962

