version 2
run Wireless01-120-20200710-12:27:59-3223
attr configname Wireless01
attr datetime 20200710-12:27:59
attr experiment Wireless01
attr inifile omnetpp.ini
attr iterationvars $name=Wireless_6_5m
attr iterationvarsf name=Wireless#_6#_5m-
attr measurement $name=Wireless_6_5m
attr network "${name=Wireless_3_1m,Wireless_3_5m, Wireless_3_10m, Wireless_6_1m, Wireless_6_5m, Wireless_6_10m, Wireless_12_1m, Wireless_12_5m, Wireless_12_10m }"
attr processid 3223
attr repetition 0
attr replication #0
attr resultdir results
attr runnumber 120
attr seedset 120
itervar name Wireless_6_5m
param *.hostA.numApps 1
param *.hostA.app[0].typename "\"TDOAApp\""
param *.hostA.app[0].destAddresses "\"Broadcast\""
param *.hostA.app[0].destPort 5000
param *.hostA.app[0].localPort 6000
param *.hostA.app[0].isReceiver false
param *.hostA.app[0].Nome_arquivo "\"Wireless_6_5m.csv\""
param *.host*.numApps 1
param *.host*.app[0].typename "\"TDOAApp\""
param *.host*.app[0].localPort 5000
param *.host*.app[0].destPort 6000
param *.host*.app[0].destAddresses "\"hostA\""
param *.host*.app[0].isReceiver true
param *.host*.wlan[0].typename "\"WirelessInterface\""
param *.radioMedium.typename "\"ApskScalarRadioMedium\""
param *.radioMedium.backgroundNoise.power -90dBm
param *.radioMedium.mediumLimitCache.centerFrequency 2GHz
param *.host*.wlan[0].radio.typename "\"ApskScalarRadio\""
param *.host*.wlan[0].radio.centerFrequency 2GHz
param *.host*.wlan[0].radio.bandwidth 2MHz
param *.host*.wlan[0].radio.transmitter.power 1.4mW
param *.host*.wlan[0].radio.transmitter.preambleDuration 10us
param *.host*.wlan[0].radio.transmitter.headerLength 8B
param *.host*.wlan[0].radio.receiver.sensitivity -85dBm
param *.host*.wlan[0].radio.receiver.energyDetection -85dBm
param *.host*.wlan[0].radio.receiver.snirThreshold 4dB
param *.host*.wlan[0].mac.typename "\"CsmaCaMac\""
param *.host*.wlan[0].mac.ackTimeout 300us
param *.host*.wlan[0].mac.useAck true
param *.host*.wlan[0].mac.fullDuplex false
param *.host*.wlan[0].radio.receiver.ignoreInterference true
param *.host*.wlan[0].mac.headerLength 23B
param *.host*.**.bitrate 1Mbps
param *.host*.ipv4.arp.typename "\"GlobalArp\""
param **.ip.limitedBroadcast true

vector 0 Wireless_6_5m.hostA.wlan[0].radio radioMode:vector ETV
attr interpolationmode sample-hold
attr source radioModeChanged
attr title "Radio mode, vector"
vector 1 Wireless_6_5m.hostB.wlan[0].radio radioMode:vector ETV
attr interpolationmode sample-hold
attr source radioModeChanged
attr title "Radio mode, vector"
vector 2 Wireless_6_5m.hostC.wlan[0].radio radioMode:vector ETV
attr interpolationmode sample-hold
attr source radioModeChanged
attr title "Radio mode, vector"
vector 3 Wireless_6_5m.hostD.wlan[0].radio radioMode:vector ETV
attr interpolationmode sample-hold
attr source radioModeChanged
attr title "Radio mode, vector"
vector 4 Wireless_6_5m.hostE.wlan[0].radio radioMode:vector ETV
attr interpolationmode sample-hold
attr source radioModeChanged
attr title "Radio mode, vector"
vector 5 Wireless_6_5m.hostF.wlan[0].radio radioMode:vector ETV
attr interpolationmode sample-hold
attr source radioModeChanged
attr title "Radio mode, vector"
vector 6 Wireless_6_5m.hostG.wlan[0].radio radioMode:vector ETV
attr interpolationmode sample-hold
attr source radioModeChanged
attr title "Radio mode, vector"
vector 7 Wireless_6_5m.hostA.wlan[0].radio receptionState:vector ETV
attr interpolationmode sample-hold
attr source receptionStateChanged
attr title "Radio reception state, vector"
vector 8 Wireless_6_5m.hostB.wlan[0].radio receptionState:vector ETV
attr interpolationmode sample-hold
attr source receptionStateChanged
attr title "Radio reception state, vector"
vector 9 Wireless_6_5m.hostC.wlan[0].radio receptionState:vector ETV
attr interpolationmode sample-hold
attr source receptionStateChanged
attr title "Radio reception state, vector"
vector 10 Wireless_6_5m.hostD.wlan[0].radio receptionState:vector ETV
attr interpolationmode sample-hold
attr source receptionStateChanged
attr title "Radio reception state, vector"
vector 11 Wireless_6_5m.hostE.wlan[0].radio receptionState:vector ETV
attr interpolationmode sample-hold
attr source receptionStateChanged
attr title "Radio reception state, vector"
vector 12 Wireless_6_5m.hostF.wlan[0].radio receptionState:vector ETV
attr interpolationmode sample-hold
attr source receptionStateChanged
attr title "Radio reception state, vector"
vector 13 Wireless_6_5m.hostG.wlan[0].radio receptionState:vector ETV
attr interpolationmode sample-hold
attr source receptionStateChanged
attr title "Radio reception state, vector"
vector 14 Wireless_6_5m.hostA.udp packetSent:vector(packetBytes) ETV
attr interpolationmode none
attr source packetSent
attr title "packets sent, vector(packetBytes)"
vector 15 Wireless_6_5m.hostA.lo[0].lo rcvdPkFromHl:vector(packetBytes) ETV
attr interpolationmode none
attr source packetReceivedFromUpper
attr title "packets received from higher layer, vector(packetBytes)"
vector 16 Wireless_6_5m.hostA.lo[0].lo passedUpPk:vector(packetBytes) ETV
attr interpolationmode none
attr source packetSentToUpper
attr title "packets passed to higher layer, vector(packetBytes)"
vector 17 Wireless_6_5m.hostA.wlan[0].mac.queue packetPushed:vector(packetBytes) ETV
attr interpolationmode none
attr title "packet pushed, vector(packetBytes)"
vector 18 Wireless_6_5m.hostA.wlan[0].mac.queue queueLength:vector ETV
attr interpolationmode sample-hold
attr source "count(packetPushed) - count(packetPopped) - count(packetRemoved) - count(packetDropped)"
attr title "queue length, vector"
vector 19 Wireless_6_5m.hostA.wlan[0].mac.queue packetPopped:vector(packetBytes) ETV
attr interpolationmode none
attr title "packet popped, vector(packetBytes)"
vector 20 Wireless_6_5m.hostA.wlan[0].mac.queue queueingTime:vector ETV
attr interpolationmode none
attr source queueingTime(packetPopped)
attr title "queueing times, vector"
attr unit s
vector 21 Wireless_6_5m.hostA.udp packetReceived:vector(packetBytes) ETV
attr interpolationmode none
attr source packetReceived
attr title "packets received, vector(packetBytes)"
vector 22 Wireless_6_5m.hostA.udp droppedPkWrongPort:vector(count) ETV
attr interpolationmode none
attr source packetDropReasonIsNoPortFound(packetDropped)
attr title "packets dropped (wrong port), vector(count)"
vector 23 Wireless_6_5m.hostA.wlan[0].radio transmissionState:vector ETV
attr interpolationmode sample-hold
attr source transmissionStateChanged
attr title "Radio transmission state, vector"
vector 24 Wireless_6_5m.hostB.udp packetReceived:vector(packetBytes) ETV
attr interpolationmode none
attr source packetReceived
attr title "packets received, vector(packetBytes)"
vector 25 Wireless_6_5m.hostB.udp passedUpPk:vector(count) ETV
attr interpolationmode none
attr source packetSentToUpper
attr title "packets passed up, vector(count)"
vector 26 Wireless_6_5m.hostC.udp packetReceived:vector(packetBytes) ETV
attr interpolationmode none
attr source packetReceived
attr title "packets received, vector(packetBytes)"
vector 27 Wireless_6_5m.hostC.udp passedUpPk:vector(count) ETV
attr interpolationmode none
attr source packetSentToUpper
attr title "packets passed up, vector(count)"
vector 28 Wireless_6_5m.hostD.udp packetReceived:vector(packetBytes) ETV
attr interpolationmode none
attr source packetReceived
attr title "packets received, vector(packetBytes)"
vector 29 Wireless_6_5m.hostD.udp passedUpPk:vector(count) ETV
attr interpolationmode none
attr source packetSentToUpper
attr title "packets passed up, vector(count)"
vector 30 Wireless_6_5m.hostE.udp packetReceived:vector(packetBytes) ETV
attr interpolationmode none
attr source packetReceived
attr title "packets received, vector(packetBytes)"
vector 31 Wireless_6_5m.hostE.udp passedUpPk:vector(count) ETV
attr interpolationmode none
attr source packetSentToUpper
attr title "packets passed up, vector(count)"
vector 32 Wireless_6_5m.hostF.udp packetReceived:vector(packetBytes) ETV
attr interpolationmode none
attr source packetReceived
attr title "packets received, vector(packetBytes)"
vector 33 Wireless_6_5m.hostF.udp passedUpPk:vector(count) ETV
attr interpolationmode none
attr source packetSentToUpper
attr title "packets passed up, vector(count)"
vector 34 Wireless_6_5m.hostG.udp packetReceived:vector(packetBytes) ETV
attr interpolationmode none
attr source packetReceived
attr title "packets received, vector(packetBytes)"
vector 35 Wireless_6_5m.hostG.udp passedUpPk:vector(count) ETV
attr interpolationmode none
attr source packetSentToUpper
attr title "packets passed up, vector(count)"
vector 36 Wireless_6_5m.hostB.udp packetSent:vector(packetBytes) ETV
attr interpolationmode none
attr source packetSent
attr title "packets sent, vector(packetBytes)"
vector 37 Wireless_6_5m.hostC.udp packetSent:vector(packetBytes) ETV
attr interpolationmode none
attr source packetSent
attr title "packets sent, vector(packetBytes)"
vector 38 Wireless_6_5m.hostD.udp packetSent:vector(packetBytes) ETV
attr interpolationmode none
attr source packetSent
attr title "packets sent, vector(packetBytes)"
vector 39 Wireless_6_5m.hostE.udp packetSent:vector(packetBytes) ETV
attr interpolationmode none
attr source packetSent
attr title "packets sent, vector(packetBytes)"
vector 40 Wireless_6_5m.hostF.udp packetSent:vector(packetBytes) ETV
attr interpolationmode none
attr source packetSent
attr title "packets sent, vector(packetBytes)"
vector 41 Wireless_6_5m.hostG.udp packetSent:vector(packetBytes) ETV
attr interpolationmode none
attr source packetSent
attr title "packets sent, vector(packetBytes)"
vector 42 Wireless_6_5m.hostB.wlan[0].mac.queue packetPushed:vector(packetBytes) ETV
attr interpolationmode none
attr title "packet pushed, vector(packetBytes)"
vector 43 Wireless_6_5m.hostB.wlan[0].mac.queue queueLength:vector ETV
attr interpolationmode sample-hold
attr source "count(packetPushed) - count(packetPopped) - count(packetRemoved) - count(packetDropped)"
attr title "queue length, vector"
vector 44 Wireless_6_5m.hostB.wlan[0].mac.queue packetPopped:vector(packetBytes) ETV
attr interpolationmode none
attr title "packet popped, vector(packetBytes)"
vector 45 Wireless_6_5m.hostB.wlan[0].mac.queue queueingTime:vector ETV
attr interpolationmode none
attr source queueingTime(packetPopped)
attr title "queueing times, vector"
attr unit s
vector 46 Wireless_6_5m.hostC.wlan[0].mac.queue packetPushed:vector(packetBytes) ETV
attr interpolationmode none
attr title "packet pushed, vector(packetBytes)"
vector 47 Wireless_6_5m.hostC.wlan[0].mac.queue queueLength:vector ETV
attr interpolationmode sample-hold
attr source "count(packetPushed) - count(packetPopped) - count(packetRemoved) - count(packetDropped)"
attr title "queue length, vector"
vector 48 Wireless_6_5m.hostC.wlan[0].mac.queue packetPopped:vector(packetBytes) ETV
attr interpolationmode none
attr title "packet popped, vector(packetBytes)"
vector 49 Wireless_6_5m.hostC.wlan[0].mac.queue queueingTime:vector ETV
attr interpolationmode none
attr source queueingTime(packetPopped)
attr title "queueing times, vector"
attr unit s
vector 50 Wireless_6_5m.hostD.wlan[0].mac.queue packetPushed:vector(packetBytes) ETV
attr interpolationmode none
attr title "packet pushed, vector(packetBytes)"
vector 51 Wireless_6_5m.hostD.wlan[0].mac.queue queueLength:vector ETV
attr interpolationmode sample-hold
attr source "count(packetPushed) - count(packetPopped) - count(packetRemoved) - count(packetDropped)"
attr title "queue length, vector"
vector 52 Wireless_6_5m.hostD.wlan[0].mac.queue packetPopped:vector(packetBytes) ETV
attr interpolationmode none
attr title "packet popped, vector(packetBytes)"
vector 53 Wireless_6_5m.hostD.wlan[0].mac.queue queueingTime:vector ETV
attr interpolationmode none
attr source queueingTime(packetPopped)
attr title "queueing times, vector"
attr unit s
vector 54 Wireless_6_5m.hostE.wlan[0].mac.queue packetPushed:vector(packetBytes) ETV
attr interpolationmode none
attr title "packet pushed, vector(packetBytes)"
vector 55 Wireless_6_5m.hostE.wlan[0].mac.queue queueLength:vector ETV
attr interpolationmode sample-hold
attr source "count(packetPushed) - count(packetPopped) - count(packetRemoved) - count(packetDropped)"
attr title "queue length, vector"
vector 56 Wireless_6_5m.hostE.wlan[0].mac.queue packetPopped:vector(packetBytes) ETV
attr interpolationmode none
attr title "packet popped, vector(packetBytes)"
vector 57 Wireless_6_5m.hostE.wlan[0].mac.queue queueingTime:vector ETV
attr interpolationmode none
attr source queueingTime(packetPopped)
attr title "queueing times, vector"
attr unit s
vector 58 Wireless_6_5m.hostF.wlan[0].mac.queue packetPushed:vector(packetBytes) ETV
attr interpolationmode none
attr title "packet pushed, vector(packetBytes)"
vector 59 Wireless_6_5m.hostF.wlan[0].mac.queue queueLength:vector ETV
attr interpolationmode sample-hold
attr source "count(packetPushed) - count(packetPopped) - count(packetRemoved) - count(packetDropped)"
attr title "queue length, vector"
vector 60 Wireless_6_5m.hostF.wlan[0].mac.queue packetPopped:vector(packetBytes) ETV
attr interpolationmode none
attr title "packet popped, vector(packetBytes)"
vector 61 Wireless_6_5m.hostF.wlan[0].mac.queue queueingTime:vector ETV
attr interpolationmode none
attr source queueingTime(packetPopped)
attr title "queueing times, vector"
attr unit s
vector 62 Wireless_6_5m.hostG.wlan[0].mac.queue packetPushed:vector(packetBytes) ETV
attr interpolationmode none
attr title "packet pushed, vector(packetBytes)"
vector 63 Wireless_6_5m.hostG.wlan[0].mac.queue queueLength:vector ETV
attr interpolationmode sample-hold
attr source "count(packetPushed) - count(packetPopped) - count(packetRemoved) - count(packetDropped)"
attr title "queue length, vector"
vector 64 Wireless_6_5m.hostG.wlan[0].mac.queue packetPopped:vector(packetBytes) ETV
attr interpolationmode none
attr title "packet popped, vector(packetBytes)"
vector 65 Wireless_6_5m.hostG.wlan[0].mac.queue queueingTime:vector ETV
attr interpolationmode none
attr source queueingTime(packetPopped)
attr title "queueing times, vector"
attr unit s
vector 66 Wireless_6_5m.hostG.wlan[0].radio transmissionState:vector ETV
attr interpolationmode sample-hold
attr source transmissionStateChanged
attr title "Radio transmission state, vector"
vector 67 Wireless_6_5m.hostB.wlan[0].mac packetDropNotAddressedToUs:vector(packetBytes) ETV
attr interpolationmode none
attr source packetDropReasonIsNotAddressedToUs(packetDropped)
attr title "packet drop: not addressed to us, vector(packetBytes)"
vector 68 Wireless_6_5m.hostF.wlan[0].mac packetDropNotAddressedToUs:vector(packetBytes) ETV
attr interpolationmode none
attr source packetDropReasonIsNotAddressedToUs(packetDropped)
attr title "packet drop: not addressed to us, vector(packetBytes)"
vector 69 Wireless_6_5m.hostA.udp passedUpPk:vector(count) ETV
attr interpolationmode none
attr source packetSentToUpper
attr title "packets passed up, vector(count)"
vector 70 Wireless_6_5m.hostC.wlan[0].mac packetDropNotAddressedToUs:vector(packetBytes) ETV
attr interpolationmode none
attr source packetDropReasonIsNotAddressedToUs(packetDropped)
attr title "packet drop: not addressed to us, vector(packetBytes)"
vector 71 Wireless_6_5m.hostE.wlan[0].mac packetDropNotAddressedToUs:vector(packetBytes) ETV
attr interpolationmode none
attr source packetDropReasonIsNotAddressedToUs(packetDropped)
attr title "packet drop: not addressed to us, vector(packetBytes)"
vector 72 Wireless_6_5m.hostD.wlan[0].mac packetDropNotAddressedToUs:vector(packetBytes) ETV
attr interpolationmode none
attr source packetDropReasonIsNotAddressedToUs(packetDropped)
attr title "packet drop: not addressed to us, vector(packetBytes)"
vector 73 Wireless_6_5m.hostE.wlan[0].radio transmissionState:vector ETV
attr interpolationmode sample-hold
attr source transmissionStateChanged
attr title "Radio transmission state, vector"
vector 74 Wireless_6_5m.hostF.wlan[0].radio transmissionState:vector ETV
attr interpolationmode sample-hold
attr source transmissionStateChanged
attr title "Radio transmission state, vector"
vector 75 Wireless_6_5m.hostA.wlan[0].mac packetDropIncorrectlyReceived:vector(packetBytes) ETV
attr interpolationmode none
attr source packetDropReasonIsIncorrectlyReceived(packetDropped)
attr title "packet drop: incorrectly received, vector(packetBytes)"
vector 76 Wireless_6_5m.hostC.wlan[0].mac packetDropIncorrectlyReceived:vector(packetBytes) ETV
attr interpolationmode none
attr source packetDropReasonIsIncorrectlyReceived(packetDropped)
attr title "packet drop: incorrectly received, vector(packetBytes)"
vector 77 Wireless_6_5m.hostG.wlan[0].mac packetDropIncorrectlyReceived:vector(packetBytes) ETV
attr interpolationmode none
attr source packetDropReasonIsIncorrectlyReceived(packetDropped)
attr title "packet drop: incorrectly received, vector(packetBytes)"
vector 78 Wireless_6_5m.hostB.wlan[0].radio transmissionState:vector ETV
attr interpolationmode sample-hold
attr source transmissionStateChanged
attr title "Radio transmission state, vector"
vector 79 Wireless_6_5m.hostG.wlan[0].mac packetDropNotAddressedToUs:vector(packetBytes) ETV
attr interpolationmode none
attr source packetDropReasonIsNotAddressedToUs(packetDropped)
attr title "packet drop: not addressed to us, vector(packetBytes)"
vector 80 Wireless_6_5m.hostC.wlan[0].radio transmissionState:vector ETV
attr interpolationmode sample-hold
attr source transmissionStateChanged
attr title "Radio transmission state, vector"
vector 81 Wireless_6_5m.hostD.wlan[0].radio transmissionState:vector ETV
attr interpolationmode sample-hold
attr source transmissionStateChanged
attr title "Radio transmission state, vector"
0	0	0	0
0	0	0	0
0	0	0	2
0	22	0.00051	3
0	30	0.001056	2
0	109	0.001662033356	3
0	117	0.001880033356	2
0	199	0.003222095599	3
0	207	0.003440095599	2
0	248	0.004126128955	3
0	256	0.004344128955	2
0	296	0.004990162311	3
0	304	0.005208162311	2
0	343	0.005914195667	3
0	351	0.006132195667	2
0	389	0.007738229023	3
0	397	0.007956229023	2
1	0	0	0
1	0	0	0
1	0	0	2
1	173	0.002666078921	3
1	183	0.003212078921	2
2	0	0	0
2	0	0	0
2	0	0	2
2	272	0.004434145633	3
2	280	0.004980145633	2
3	0	0	0
3	0	0	0
3	0	0	2
3	319	0.005358178989	3
3	327	0.005904178989	2
4	0	0	0
4	0	0	0
4	0	0	2
4	135	0.001970050034	3
4	151	0.002516050034	2
4	365	0.007182212345	3
4	373	0.007728212345	2
5	0	0	0
5	0	0	0
5	0	0	2
5	136	0.001970050034	3
5	152	0.002516050034	2
5	224	0.003570112277	3
5	232	0.004116112277	2
6	0	0	0
6	0	0	0
6	0	0	2
6	85	0.001106016678	3
6	93	0.001652016678	2
7	0	0	1
7	22	0.00051	0
7	30	0.001056	1
7	87	0.001106033356	3
7	94	0.001652033356	1
7	109	0.001662033356	0
7	117	0.001880033356	1
7	139	0.001970066712	3
7	153	0.002516066712	1
7	175	0.002666095599	3
7	184	0.003212095599	1
7	199	0.003222095599	0
7	207	0.003440095599	1
7	226	0.003570128955	3
7	233	0.004116128955	1
7	248	0.004126128955	0
7	256	0.004344128955	1
7	274	0.004434162311	3
7	281	0.004980162311	1
7	296	0.004990162311	0
7	304	0.005208162311	1
7	321	0.005358195667	3
7	328	0.005904195667	1
7	343	0.005914195667	0
7	351	0.006132195667	1
7	367	0.007182229023	3
7	374	0.007728229023	1
7	389	0.007738229023	0
7	397	0.007956229023	1
8	0	0	1
8	24	0.000510016678	3
8	31	0.001056016678	1
8	88	0.001106033356	3
8	95	0.001652033356	1
8	111	0.001662050034	3
8	118	0.001880050034	1
8	140	0.001970066712	3
8	154	0.002516066712	2
8	166	0.002516078921	1
8	173	0.002666078921	0
8	183	0.003212078921	1
8	201	0.003222112277	3
8	208	0.003440112277	1
8	229	0.003570141164	3
8	242	0.004116141164	1
8	250	0.004126145633	3
8	257	0.004344145633	1
8	279	0.004434178989	3
8	294	0.004980178989	1
8	298	0.004990178989	3
8	305	0.005208178989	1
8	324	0.005358207876	3
8	337	0.005904207876	1
8	345	0.005914212345	3
8	352	0.006132212345	1
8	368	0.007182229023	3
8	375	0.007728229023	1
8	391	0.007738245701	3
8	398	0.007956245701	1
9	0	0	1
9	25	0.000510016678	3
9	32	0.001056016678	1
9	90	0.001106045565	3
9	103	0.001652045565	1
9	112	0.001662050034	3
9	119	0.001880050034	1
9	143	0.001970066712	3
9	157	0.002516066712	2
9	164	0.002516078921	1
9	180	0.002666112277	3
9	197	0.003212112277	1
9	202	0.003222112277	3
9	209	0.003440112277	1
9	227	0.003570128955	3
9	234	0.004116128955	1
9	251	0.004126145633	3
9	258	0.004344145633	1
9	272	0.004434145633	0
9	280	0.004980145633	1
9	299	0.004990178989	3
9	306	0.005208178989	1
9	322	0.005358195667	3
9	329	0.005904195667	1
9	346	0.005914212345	3
9	353	0.006132212345	1
9	370	0.007182241232	3
9	383	0.007728241232	1
9	392	0.007738245701	3
9	399	0.007956245701	1
10	0	0	1
10	26	0.000510016678	3
10	33	0.001056016678	1
10	92	0.001106050034	3
10	107	0.001652050034	1
10	113	0.001662050034	3
10	120	0.001880050034	1
10	141	0.001970066712	3
10	155	0.002516066712	2
10	167	0.002516078921	1
10	178	0.002666107808	3
10	193	0.003212107808	1
10	203	0.003222112277	3
10	210	0.003440112277	1
10	230	0.003570141164	3
10	243	0.004116141164	1
10	252	0.004126145633	3
10	259	0.004344145633	1
10	275	0.004434162311	3
10	282	0.004980162311	1
10	300	0.004990178989	3
10	307	0.005208178989	1
10	319	0.005358178989	0
10	327	0.005904178989	1
10	347	0.005914212345	3
10	354	0.006132212345	1
10	369	0.007182229023	3
10	376	0.007728229023	1
10	393	0.007738245701	3
10	400	0.007956245701	1
11	0	0	1
11	27	0.000510016678	3
11	34	0.001056016678	1
11	91	0.001106045565	3
11	104	0.001652045565	1
11	114	0.001662050034	3
11	121	0.001880050034	1
11	135	0.001970050034	0
11	151	0.002516050034	2
11	169	0.00251608339	1
11	176	0.002666095599	3
11	185	0.003212095599	1
11	204	0.003222112277	3
11	211	0.003440112277	1
11	231	0.003570145633	3
11	246	0.004116145633	1
11	253	0.004126145633	3
11	260	0.004344145633	1
11	277	0.00443417452	3
11	290	0.00498017452	1
11	301	0.004990178989	3
11	308	0.005208178989	1
11	323	0.005358195667	3
11	330	0.005904195667	1
11	348	0.005914212345	3
11	355	0.006132212345	1
11	365	0.007182212345	0
11	373	0.007728212345	1
11	394	0.007738245701	3
11	401	0.007956245701	1
12	0	0	1
12	28	0.000510016678	3
12	35	0.001056016678	1
12	89	0.001106033356	3
12	96	0.001652033356	1
12	115	0.001662050034	3
12	122	0.001880050034	1
12	136	0.001970050034	0
12	152	0.002516050034	2
12	168	0.00251608339	1
12	179	0.002666107808	3
12	194	0.003212107808	1
12	205	0.003222112277	3
12	212	0.003440112277	1
12	224	0.003570112277	0
12	232	0.004116112277	1
12	254	0.004126145633	3
12	261	0.004344145633	1
12	276	0.004434162311	3
12	283	0.004980162311	1
12	302	0.004990178989	3
12	309	0.005208178989	1
12	325	0.005358207876	3
12	338	0.005904207876	1
12	349	0.005914212345	3
12	356	0.006132212345	1
12	372	0.007182245701	3
12	387	0.007728245701	1
12	395	0.007738245701	3
12	402	0.007956245701	1
13	0	0	1
13	29	0.000510016678	3
13	36	0.001056016678	1
13	85	0.001106016678	0
13	93	0.001652016678	1
13	116	0.001662050034	3
13	123	0.001880050034	1
13	144	0.001970066712	3
13	158	0.002516066712	2
13	165	0.002516078921	1
13	177	0.002666095599	3
13	186	0.003212095599	1
13	206	0.003222112277	3
13	213	0.003440112277	1
13	228	0.003570128955	3
13	235	0.004116128955	1
13	255	0.004126145633	3
13	262	0.004344145633	1
13	278	0.00443417452	3
13	291	0.00498017452	1
13	303	0.004990178989	3
13	310	0.005208178989	1
13	326	0.005358212345	3
13	341	0.005904212345	1
13	350	0.005914212345	3
13	357	0.006132212345	1
13	371	0.007182241232	3
13	384	0.007728241232	1
13	396	0.007738245701	3
13	403	0.007956245701	1
14	3	0	12
15	17	0	32
16	17	0	32
17	18	0	59
18	18	0	1
18	18	0	0
19	18	0	59
20	18	0	0
21	20	0	12
21	101	0.001652033356	12
21	191	0.003212095599	12
21	240	0.004116128955	12
21	288	0.004980162311	12
21	335	0.005904195667	12
21	381	0.007728229023	12
22	20	0	1
23	22	0.00051	1
23	23	0.00051	2
23	30	0.001056	1
23	30	0.001056	0
23	109	0.001662033356	1
23	110	0.001662033356	2
23	117	0.001880033356	1
23	117	0.001880033356	0
23	199	0.003222095599	1
23	200	0.003222095599	2
23	207	0.003440095599	1
23	207	0.003440095599	0
23	248	0.004126128955	1
23	249	0.004126128955	2
23	256	0.004344128955	1
23	256	0.004344128955	0
23	296	0.004990162311	1
23	297	0.004990162311	2
23	304	0.005208162311	1
23	304	0.005208162311	0
23	343	0.005914195667	1
23	344	0.005914195667	2
23	351	0.006132195667	1
23	351	0.006132195667	0
23	389	0.007738229023	1
23	390	0.007738229023	2
23	397	0.007956229023	1
23	397	0.007956229023	0
24	49	0.001056016678	12
25	49	0.001056016678	1
26	50	0.001056016678	12
27	50	0.001056016678	1
28	51	0.001056016678	12
29	51	0.001056016678	1
30	52	0.001056016678	12
31	52	0.001056016678	1
32	53	0.001056016678	12
33	53	0.001056016678	1
34	54	0.001056016678	12
35	54	0.001056016678	1
36	61	0.001056016678	12
37	62	0.001056016678	12
38	63	0.001056016678	12
39	64	0.001056016678	12
40	65	0.001056016678	12
41	66	0.001056016678	12
42	73	0.001056016678	59
43	73	0.001056016678	1
43	73	0.001056016678	0
44	73	0.001056016678	59
45	73	0.001056016678	0
46	74	0.001056016678	59
47	74	0.001056016678	1
47	74	0.001056016678	0
48	74	0.001056016678	59
49	74	0.001056016678	0
50	75	0.001056016678	59
51	75	0.001056016678	1
51	75	0.001056016678	0
52	75	0.001056016678	59
53	75	0.001056016678	0
54	76	0.001056016678	59
55	76	0.001056016678	1
55	76	0.001056016678	0
56	76	0.001056016678	59
57	76	0.001056016678	0
58	77	0.001056016678	59
59	77	0.001056016678	1
59	77	0.001056016678	0
60	77	0.001056016678	59
61	77	0.001056016678	0
62	78	0.001056016678	59
63	78	0.001056016678	1
63	78	0.001056016678	0
64	78	0.001056016678	59
65	78	0.001056016678	0
66	85	0.001106016678	1
66	86	0.001106016678	2
66	93	0.001652016678	1
66	93	0.001652016678	0
67	98	0.001652033356	59
67	160	0.002516066712	59
67	244	0.004116141164	59
67	295	0.004980178989	59
67	339	0.005904207876	59
67	378	0.007728229023	59
68	99	0.001652033356	59
68	196	0.003212107808	59
68	286	0.004980162311	59
68	340	0.005904207876	59
68	388	0.007728245701	59
69	101	0.001652033356	1
69	191	0.003212095599	2
69	240	0.004116128955	3
69	288	0.004980162311	4
69	335	0.005904195667	5
69	381	0.007728229023	6
70	105	0.001652045565	59
70	198	0.003212112277	59
70	237	0.004116128955	59
70	332	0.005904195667	59
70	385	0.007728241232	59
71	106	0.001652045565	59
71	188	0.003212095599	59
71	247	0.004116145633	59
71	292	0.00498017452	59
71	333	0.005904195667	59
72	108	0.001652050034	59
72	161	0.002516066712	59
72	195	0.003212107808	59
72	245	0.004116141164	59
72	285	0.004980162311	59
72	379	0.007728229023	59
73	135	0.001970050034	1
73	137	0.001970050034	2
73	151	0.002516050034	1
73	151	0.002516050034	0
73	365	0.007182212345	1
73	366	0.007182212345	2
73	373	0.007728212345	1
73	373	0.007728212345	0
74	136	0.001970050034	1
74	138	0.001970050034	2
74	152	0.002516050034	1
74	152	0.002516050034	0
74	224	0.003570112277	1
74	225	0.003570112277	2
74	232	0.004116112277	1
74	232	0.004116112277	0
75	159	0.002516066712	59
76	162	0.002516066712	59
77	163	0.002516066712	59
78	173	0.002666078921	1
78	174	0.002666078921	2
78	183	0.003212078921	1
78	183	0.003212078921	0
79	189	0.003212095599	59
79	238	0.004116128955	59
79	293	0.00498017452	59
79	342	0.005904212345	59
79	386	0.007728241232	59
80	272	0.004434145633	1
80	273	0.004434145633	2
80	280	0.004980145633	1
80	280	0.004980145633	0
81	319	0.005358178989	1
81	320	0.005358178989	2
81	327	0.005904178989	1
81	327	0.005904178989	0

