version 2
run Wireless01-89-20200710-20:02:03-2883
attr configname Wireless01
attr datetime 20200710-20:02:03
attr experiment Wireless01
attr inifile omnetpp.ini
attr iterationvars $name=Wireless_3_10m
attr iterationvarsf name=Wireless#_3#_10m-
attr measurement $name=Wireless_3_10m
attr network "${name=Wireless_3_1m,Wireless_3_5m, Wireless_3_10m, Wireless_6_1m, Wireless_6_5m, Wireless_6_10m, Wireless_12_1m, Wireless_12_5m, Wireless_12_10m }"
attr processid 2883
attr repetition 29
attr replication #29
attr resultdir results
attr runnumber 89
attr seedset 89
itervar name Wireless_3_10m
param *.hostA.numApps 1
param *.hostA.app[0].typename "\"TDOAApp\""
param *.hostA.app[0].destAddresses "\"Broadcast\""
param *.hostA.app[0].destPort 5000
param *.hostA.app[0].localPort 6000
param *.hostA.app[0].isReceiver false
param *.hostA.app[0].Nome_arquivo "\"Wireless_3_10m.csv\""
param *.host*.numApps 1
param *.host*.app[0].typename "\"TDOAApp\""
param *.host*.app[0].localPort 5000
param *.host*.app[0].destPort 6000
param *.host*.app[0].destAddresses "\"hostA\""
param *.host*.app[0].isReceiver true
param *.host*.wlan[0].typename "\"WirelessInterface\""
param *.radioMedium.typename "\"ApskScalarRadioMedium\""
param *.radioMedium.backgroundNoise.power -90dBm
param *.radioMedium.mediumLimitCache.centerFrequency 2GHz
param *.host*.wlan[0].radio.typename "\"ApskScalarRadio\""
param *.host*.wlan[0].radio.centerFrequency 2GHz
param *.host*.wlan[0].radio.bandwidth 2MHz
param *.host*.wlan[0].radio.transmitter.power 1.4mW
param *.host*.wlan[0].radio.transmitter.preambleDuration 10us
param *.host*.wlan[0].radio.transmitter.headerLength 8B
param *.host*.wlan[0].radio.receiver.sensitivity -85dBm
param *.host*.wlan[0].radio.receiver.energyDetection -85dBm
param *.host*.wlan[0].radio.receiver.snirThreshold 4dB
param *.host*.wlan[0].mac.typename "\"CsmaCaMac\""
param *.host*.wlan[0].mac.ackTimeout 300us
param *.host*.wlan[0].mac.useAck true
param *.host*.wlan[0].mac.fullDuplex false
param *.host*.wlan[0].radio.receiver.ignoreInterference true
param *.host*.wlan[0].mac.headerLength 23B
param *.host*.**.bitrate 1Mbps
param *.host*.ipv4.arp.typename "\"GlobalArp\""
param **.ip.limitedBroadcast true

vector 0 Wireless_3_10m.hostA.wlan[0].radio radioMode:vector ETV
attr interpolationmode sample-hold
attr source radioModeChanged
attr title "Radio mode, vector"
vector 1 Wireless_3_10m.hostB.wlan[0].radio radioMode:vector ETV
attr interpolationmode sample-hold
attr source radioModeChanged
attr title "Radio mode, vector"
vector 2 Wireless_3_10m.hostC.wlan[0].radio radioMode:vector ETV
attr interpolationmode sample-hold
attr source radioModeChanged
attr title "Radio mode, vector"
vector 3 Wireless_3_10m.hostD.wlan[0].radio radioMode:vector ETV
attr interpolationmode sample-hold
attr source radioModeChanged
attr title "Radio mode, vector"
vector 4 Wireless_3_10m.hostA.wlan[0].radio receptionState:vector ETV
attr interpolationmode sample-hold
attr source receptionStateChanged
attr title "Radio reception state, vector"
vector 5 Wireless_3_10m.hostB.wlan[0].radio receptionState:vector ETV
attr interpolationmode sample-hold
attr source receptionStateChanged
attr title "Radio reception state, vector"
vector 6 Wireless_3_10m.hostC.wlan[0].radio receptionState:vector ETV
attr interpolationmode sample-hold
attr source receptionStateChanged
attr title "Radio reception state, vector"
vector 7 Wireless_3_10m.hostD.wlan[0].radio receptionState:vector ETV
attr interpolationmode sample-hold
attr source receptionStateChanged
attr title "Radio reception state, vector"
vector 8 Wireless_3_10m.hostA.udp packetSent:vector(packetBytes) ETV
attr interpolationmode none
attr source packetSent
attr title "packets sent, vector(packetBytes)"
vector 9 Wireless_3_10m.hostA.lo[0].lo rcvdPkFromHl:vector(packetBytes) ETV
attr interpolationmode none
attr source packetReceivedFromUpper
attr title "packets received from higher layer, vector(packetBytes)"
vector 10 Wireless_3_10m.hostA.lo[0].lo passedUpPk:vector(packetBytes) ETV
attr interpolationmode none
attr source packetSentToUpper
attr title "packets passed to higher layer, vector(packetBytes)"
vector 11 Wireless_3_10m.hostA.wlan[0].mac.queue packetPushed:vector(packetBytes) ETV
attr interpolationmode none
attr title "packet pushed, vector(packetBytes)"
vector 12 Wireless_3_10m.hostA.wlan[0].mac.queue queueLength:vector ETV
attr interpolationmode sample-hold
attr source "count(packetPushed) - count(packetPopped) - count(packetRemoved) - count(packetDropped)"
attr title "queue length, vector"
vector 13 Wireless_3_10m.hostA.wlan[0].mac.queue packetPopped:vector(packetBytes) ETV
attr interpolationmode none
attr title "packet popped, vector(packetBytes)"
vector 14 Wireless_3_10m.hostA.wlan[0].mac.queue queueingTime:vector ETV
attr interpolationmode none
attr source queueingTime(packetPopped)
attr title "queueing times, vector"
attr unit s
vector 15 Wireless_3_10m.hostA.udp packetReceived:vector(packetBytes) ETV
attr interpolationmode none
attr source packetReceived
attr title "packets received, vector(packetBytes)"
vector 16 Wireless_3_10m.hostA.udp droppedPkWrongPort:vector(count) ETV
attr interpolationmode none
attr source packetDropReasonIsNoPortFound(packetDropped)
attr title "packets dropped (wrong port), vector(count)"
vector 17 Wireless_3_10m.hostA.wlan[0].radio transmissionState:vector ETV
attr interpolationmode sample-hold
attr source transmissionStateChanged
attr title "Radio transmission state, vector"
vector 18 Wireless_3_10m.hostB.udp packetReceived:vector(packetBytes) ETV
attr interpolationmode none
attr source packetReceived
attr title "packets received, vector(packetBytes)"
vector 19 Wireless_3_10m.hostB.udp passedUpPk:vector(count) ETV
attr interpolationmode none
attr source packetSentToUpper
attr title "packets passed up, vector(count)"
vector 20 Wireless_3_10m.hostC.udp packetReceived:vector(packetBytes) ETV
attr interpolationmode none
attr source packetReceived
attr title "packets received, vector(packetBytes)"
vector 21 Wireless_3_10m.hostC.udp passedUpPk:vector(count) ETV
attr interpolationmode none
attr source packetSentToUpper
attr title "packets passed up, vector(count)"
vector 22 Wireless_3_10m.hostD.udp packetReceived:vector(packetBytes) ETV
attr interpolationmode none
attr source packetReceived
attr title "packets received, vector(packetBytes)"
vector 23 Wireless_3_10m.hostD.udp passedUpPk:vector(count) ETV
attr interpolationmode none
attr source packetSentToUpper
attr title "packets passed up, vector(count)"
vector 24 Wireless_3_10m.hostB.udp packetSent:vector(packetBytes) ETV
attr interpolationmode none
attr source packetSent
attr title "packets sent, vector(packetBytes)"
vector 25 Wireless_3_10m.hostC.udp packetSent:vector(packetBytes) ETV
attr interpolationmode none
attr source packetSent
attr title "packets sent, vector(packetBytes)"
vector 26 Wireless_3_10m.hostD.udp packetSent:vector(packetBytes) ETV
attr interpolationmode none
attr source packetSent
attr title "packets sent, vector(packetBytes)"
vector 27 Wireless_3_10m.hostB.wlan[0].mac.queue packetPushed:vector(packetBytes) ETV
attr interpolationmode none
attr title "packet pushed, vector(packetBytes)"
vector 28 Wireless_3_10m.hostB.wlan[0].mac.queue queueLength:vector ETV
attr interpolationmode sample-hold
attr source "count(packetPushed) - count(packetPopped) - count(packetRemoved) - count(packetDropped)"
attr title "queue length, vector"
vector 29 Wireless_3_10m.hostB.wlan[0].mac.queue packetPopped:vector(packetBytes) ETV
attr interpolationmode none
attr title "packet popped, vector(packetBytes)"
vector 30 Wireless_3_10m.hostB.wlan[0].mac.queue queueingTime:vector ETV
attr interpolationmode none
attr source queueingTime(packetPopped)
attr title "queueing times, vector"
attr unit s
vector 31 Wireless_3_10m.hostC.wlan[0].mac.queue packetPushed:vector(packetBytes) ETV
attr interpolationmode none
attr title "packet pushed, vector(packetBytes)"
vector 32 Wireless_3_10m.hostC.wlan[0].mac.queue queueLength:vector ETV
attr interpolationmode sample-hold
attr source "count(packetPushed) - count(packetPopped) - count(packetRemoved) - count(packetDropped)"
attr title "queue length, vector"
vector 33 Wireless_3_10m.hostC.wlan[0].mac.queue packetPopped:vector(packetBytes) ETV
attr interpolationmode none
attr title "packet popped, vector(packetBytes)"
vector 34 Wireless_3_10m.hostC.wlan[0].mac.queue queueingTime:vector ETV
attr interpolationmode none
attr source queueingTime(packetPopped)
attr title "queueing times, vector"
attr unit s
vector 35 Wireless_3_10m.hostD.wlan[0].mac.queue packetPushed:vector(packetBytes) ETV
attr interpolationmode none
attr title "packet pushed, vector(packetBytes)"
vector 36 Wireless_3_10m.hostD.wlan[0].mac.queue queueLength:vector ETV
attr interpolationmode sample-hold
attr source "count(packetPushed) - count(packetPopped) - count(packetRemoved) - count(packetDropped)"
attr title "queue length, vector"
vector 37 Wireless_3_10m.hostD.wlan[0].mac.queue packetPopped:vector(packetBytes) ETV
attr interpolationmode none
attr title "packet popped, vector(packetBytes)"
vector 38 Wireless_3_10m.hostD.wlan[0].mac.queue queueingTime:vector ETV
attr interpolationmode none
attr source queueingTime(packetPopped)
attr title "queueing times, vector"
attr unit s
vector 39 Wireless_3_10m.hostC.wlan[0].radio transmissionState:vector ETV
attr interpolationmode sample-hold
attr source transmissionStateChanged
attr title "Radio transmission state, vector"
vector 40 Wireless_3_10m.hostA.udp passedUpPk:vector(count) ETV
attr interpolationmode none
attr source packetSentToUpper
attr title "packets passed up, vector(count)"
vector 41 Wireless_3_10m.hostD.wlan[0].mac packetDropNotAddressedToUs:vector(packetBytes) ETV
attr interpolationmode none
attr source packetDropReasonIsNotAddressedToUs(packetDropped)
attr title "packet drop: not addressed to us, vector(packetBytes)"
vector 42 Wireless_3_10m.hostB.wlan[0].mac packetDropNotAddressedToUs:vector(packetBytes) ETV
attr interpolationmode none
attr source packetDropReasonIsNotAddressedToUs(packetDropped)
attr title "packet drop: not addressed to us, vector(packetBytes)"
vector 43 Wireless_3_10m.hostD.wlan[0].radio transmissionState:vector ETV
attr interpolationmode sample-hold
attr source transmissionStateChanged
attr title "Radio transmission state, vector"
vector 44 Wireless_3_10m.hostC.wlan[0].mac packetDropNotAddressedToUs:vector(packetBytes) ETV
attr interpolationmode none
attr source packetDropReasonIsNotAddressedToUs(packetDropped)
attr title "packet drop: not addressed to us, vector(packetBytes)"
vector 45 Wireless_3_10m.hostB.wlan[0].radio transmissionState:vector ETV
attr interpolationmode sample-hold
attr source transmissionStateChanged
attr title "Radio transmission state, vector"
0	0	0	0
0	0	0	0
0	0	0	2
0	16	0.00059	3
0	21	0.001136	2
0	64	0.001742066712	3
0	69	0.001960066712	2
0	93	0.003026133424	3
0	98	0.003244133424	2
0	121	0.003970200136	3
0	126	0.004188200136	2
1	0	0	0
1	0	0	0
1	0	0	2
1	106	0.00341416678	3
1	111	0.00396016678	2
2	0	0	0
2	0	0	0
2	0	0	2
2	49	0.001186033356	3
2	54	0.001732033356	2
3	0	0	0
3	0	0	0
3	0	0	2
3	78	0.002470100068	3
3	83	0.003016100068	2
4	0	0	1
4	16	0.00059	0
4	21	0.001136	1
4	51	0.001186066712	3
4	55	0.001732066712	1
4	64	0.001742066712	0
4	69	0.001960066712	1
4	80	0.002470133424	3
4	84	0.003016133424	1
4	93	0.003026133424	0
4	98	0.003244133424	1
4	108	0.003414200136	3
4	112	0.003960200136	1
4	121	0.003970200136	0
4	126	0.004188200136	1
5	0	0	1
5	18	0.000590033356	3
5	22	0.001136033356	1
5	53	0.001186100069	3
5	62	0.001732100069	1
5	66	0.001742100068	3
5	70	0.001960100068	1
5	81	0.002470147241	3
5	89	0.003016147241	1
5	95	0.00302616678	3
5	99	0.00324416678	1
5	106	0.00341416678	0
5	111	0.00396016678	1
5	123	0.003970233492	3
5	127	0.004188233492	1
6	0	0	1
6	19	0.000590033356	3
6	23	0.001136033356	1
6	49	0.001186033356	0
6	54	0.001732033356	1
6	67	0.001742100068	3
6	71	0.001960100068	1
6	82	0.002470147241	3
6	90	0.003016147241	1
6	96	0.00302616678	3
6	100	0.00324416678	1
6	110	0.003414233493	3
6	119	0.003960233493	1
6	124	0.003970233492	3
6	128	0.004188233492	1
7	0	0	1
7	20	0.000590033356	3
7	24	0.001136033356	1
7	52	0.001186080529	3
7	60	0.001732080529	1
7	68	0.001742100068	3
7	72	0.001960100068	1
7	78	0.002470100068	0
7	83	0.003016100068	1
7	97	0.00302616678	3
7	101	0.00324416678	1
7	109	0.003414213953	3
7	117	0.003960213953	1
7	125	0.003970233492	3
7	129	0.004188233492	1
8	3	0	12
9	11	0	32
10	11	0	32
11	12	0	59
12	12	0	1
12	12	0	0
13	12	0	59
14	12	0	0
15	14	0	12
15	58	0.001732066712	12
15	87	0.003016133424	12
15	115	0.003960200136	12
16	14	0	1
17	16	0.00059	1
17	17	0.00059	2
17	21	0.001136	1
17	21	0.001136	0
17	64	0.001742066712	1
17	65	0.001742066712	2
17	69	0.001960066712	1
17	69	0.001960066712	0
17	93	0.003026133424	1
17	94	0.003026133424	2
17	98	0.003244133424	1
17	98	0.003244133424	0
17	121	0.003970200136	1
17	122	0.003970200136	2
17	126	0.004188200136	1
17	126	0.004188200136	0
18	31	0.001136033356	12
19	31	0.001136033356	1
20	32	0.001136033356	12
21	32	0.001136033356	1
22	33	0.001136033356	12
23	33	0.001136033356	1
24	37	0.001136033356	12
25	38	0.001136033356	12
26	39	0.001136033356	12
27	43	0.001136033356	59
28	43	0.001136033356	1
28	43	0.001136033356	0
29	43	0.001136033356	59
30	43	0.001136033356	0
31	44	0.001136033356	59
32	44	0.001136033356	1
32	44	0.001136033356	0
33	44	0.001136033356	59
34	44	0.001136033356	0
35	45	0.001136033356	59
36	45	0.001136033356	1
36	45	0.001136033356	0
37	45	0.001136033356	59
38	45	0.001136033356	0
39	49	0.001186033356	1
39	50	0.001186033356	2
39	54	0.001732033356	1
39	54	0.001732033356	0
40	58	0.001732066712	1
40	87	0.003016133424	2
40	115	0.003960200136	3
41	61	0.001732080529	59
41	118	0.003960213953	59
42	63	0.001732100069	59
42	91	0.003016147241	59
43	78	0.002470100068	1
43	79	0.002470100068	2
43	83	0.003016100068	1
43	83	0.003016100068	0
44	92	0.003016147241	59
44	120	0.003960233493	59
45	106	0.00341416678	1
45	107	0.00341416678	2
45	111	0.00396016678	1
45	111	0.00396016678	0

