version 2
run Wireless01-97-20200710-12:27:50-3108
attr configname Wireless01
attr datetime 20200710-12:27:50
attr experiment Wireless01
attr inifile omnetpp.ini
attr iterationvars $name=Wireless_6_1m
attr iterationvarsf name=Wireless#_6#_1m-
attr measurement $name=Wireless_6_1m
attr network "${name=Wireless_3_1m,Wireless_3_5m, Wireless_3_10m, Wireless_6_1m, Wireless_6_5m, Wireless_6_10m, Wireless_12_1m, Wireless_12_5m, Wireless_12_10m }"
attr processid 3108
attr repetition 7
attr replication #7
attr resultdir results
attr runnumber 97
attr seedset 97
itervar name Wireless_6_1m
param *.hostA.numApps 1
param *.hostA.app[0].typename "\"TDOAApp\""
param *.hostA.app[0].destAddresses "\"Broadcast\""
param *.hostA.app[0].destPort 5000
param *.hostA.app[0].localPort 6000
param *.hostA.app[0].isReceiver false
param *.hostA.app[0].Nome_arquivo "\"Wireless_6_1m.csv\""
param *.host*.numApps 1
param *.host*.app[0].typename "\"TDOAApp\""
param *.host*.app[0].localPort 5000
param *.host*.app[0].destPort 6000
param *.host*.app[0].destAddresses "\"hostA\""
param *.host*.app[0].isReceiver true
param *.host*.wlan[0].typename "\"WirelessInterface\""
param *.radioMedium.typename "\"ApskScalarRadioMedium\""
param *.radioMedium.backgroundNoise.power -90dBm
param *.radioMedium.mediumLimitCache.centerFrequency 2GHz
param *.host*.wlan[0].radio.typename "\"ApskScalarRadio\""
param *.host*.wlan[0].radio.centerFrequency 2GHz
param *.host*.wlan[0].radio.bandwidth 2MHz
param *.host*.wlan[0].radio.transmitter.power 1.4mW
param *.host*.wlan[0].radio.transmitter.preambleDuration 10us
param *.host*.wlan[0].radio.transmitter.headerLength 8B
param *.host*.wlan[0].radio.receiver.sensitivity -85dBm
param *.host*.wlan[0].radio.receiver.energyDetection -85dBm
param *.host*.wlan[0].radio.receiver.snirThreshold 4dB
param *.host*.wlan[0].mac.typename "\"CsmaCaMac\""
param *.host*.wlan[0].mac.ackTimeout 300us
param *.host*.wlan[0].mac.useAck true
param *.host*.wlan[0].mac.fullDuplex false
param *.host*.wlan[0].radio.receiver.ignoreInterference true
param *.host*.wlan[0].mac.headerLength 23B
param *.host*.**.bitrate 1Mbps
param *.host*.ipv4.arp.typename "\"GlobalArp\""
param **.ip.limitedBroadcast true

vector 0 Wireless_6_1m.hostA.wlan[0].radio radioMode:vector ETV
attr interpolationmode sample-hold
attr source radioModeChanged
attr title "Radio mode, vector"
vector 1 Wireless_6_1m.hostB.wlan[0].radio radioMode:vector ETV
attr interpolationmode sample-hold
attr source radioModeChanged
attr title "Radio mode, vector"
vector 2 Wireless_6_1m.hostC.wlan[0].radio radioMode:vector ETV
attr interpolationmode sample-hold
attr source radioModeChanged
attr title "Radio mode, vector"
vector 3 Wireless_6_1m.hostD.wlan[0].radio radioMode:vector ETV
attr interpolationmode sample-hold
attr source radioModeChanged
attr title "Radio mode, vector"
vector 4 Wireless_6_1m.hostE.wlan[0].radio radioMode:vector ETV
attr interpolationmode sample-hold
attr source radioModeChanged
attr title "Radio mode, vector"
vector 5 Wireless_6_1m.hostF.wlan[0].radio radioMode:vector ETV
attr interpolationmode sample-hold
attr source radioModeChanged
attr title "Radio mode, vector"
vector 6 Wireless_6_1m.hostG.wlan[0].radio radioMode:vector ETV
attr interpolationmode sample-hold
attr source radioModeChanged
attr title "Radio mode, vector"
vector 7 Wireless_6_1m.hostA.wlan[0].radio receptionState:vector ETV
attr interpolationmode sample-hold
attr source receptionStateChanged
attr title "Radio reception state, vector"
vector 8 Wireless_6_1m.hostB.wlan[0].radio receptionState:vector ETV
attr interpolationmode sample-hold
attr source receptionStateChanged
attr title "Radio reception state, vector"
vector 9 Wireless_6_1m.hostC.wlan[0].radio receptionState:vector ETV
attr interpolationmode sample-hold
attr source receptionStateChanged
attr title "Radio reception state, vector"
vector 10 Wireless_6_1m.hostD.wlan[0].radio receptionState:vector ETV
attr interpolationmode sample-hold
attr source receptionStateChanged
attr title "Radio reception state, vector"
vector 11 Wireless_6_1m.hostE.wlan[0].radio receptionState:vector ETV
attr interpolationmode sample-hold
attr source receptionStateChanged
attr title "Radio reception state, vector"
vector 12 Wireless_6_1m.hostF.wlan[0].radio receptionState:vector ETV
attr interpolationmode sample-hold
attr source receptionStateChanged
attr title "Radio reception state, vector"
vector 13 Wireless_6_1m.hostG.wlan[0].radio receptionState:vector ETV
attr interpolationmode sample-hold
attr source receptionStateChanged
attr title "Radio reception state, vector"
vector 14 Wireless_6_1m.hostA.udp packetSent:vector(packetBytes) ETV
attr interpolationmode none
attr source packetSent
attr title "packets sent, vector(packetBytes)"
vector 15 Wireless_6_1m.hostA.lo[0].lo rcvdPkFromHl:vector(packetBytes) ETV
attr interpolationmode none
attr source packetReceivedFromUpper
attr title "packets received from higher layer, vector(packetBytes)"
vector 16 Wireless_6_1m.hostA.lo[0].lo passedUpPk:vector(packetBytes) ETV
attr interpolationmode none
attr source packetSentToUpper
attr title "packets passed to higher layer, vector(packetBytes)"
vector 17 Wireless_6_1m.hostA.wlan[0].mac.queue packetPushed:vector(packetBytes) ETV
attr interpolationmode none
attr title "packet pushed, vector(packetBytes)"
vector 18 Wireless_6_1m.hostA.wlan[0].mac.queue queueLength:vector ETV
attr interpolationmode sample-hold
attr source "count(packetPushed) - count(packetPopped) - count(packetRemoved) - count(packetDropped)"
attr title "queue length, vector"
vector 19 Wireless_6_1m.hostA.wlan[0].mac.queue packetPopped:vector(packetBytes) ETV
attr interpolationmode none
attr title "packet popped, vector(packetBytes)"
vector 20 Wireless_6_1m.hostA.wlan[0].mac.queue queueingTime:vector ETV
attr interpolationmode none
attr source queueingTime(packetPopped)
attr title "queueing times, vector"
attr unit s
vector 21 Wireless_6_1m.hostA.udp packetReceived:vector(packetBytes) ETV
attr interpolationmode none
attr source packetReceived
attr title "packets received, vector(packetBytes)"
vector 22 Wireless_6_1m.hostA.udp droppedPkWrongPort:vector(count) ETV
attr interpolationmode none
attr source packetDropReasonIsNoPortFound(packetDropped)
attr title "packets dropped (wrong port), vector(count)"
vector 23 Wireless_6_1m.hostA.wlan[0].radio transmissionState:vector ETV
attr interpolationmode sample-hold
attr source transmissionStateChanged
attr title "Radio transmission state, vector"
vector 24 Wireless_6_1m.hostB.udp packetReceived:vector(packetBytes) ETV
attr interpolationmode none
attr source packetReceived
attr title "packets received, vector(packetBytes)"
vector 25 Wireless_6_1m.hostB.udp passedUpPk:vector(count) ETV
attr interpolationmode none
attr source packetSentToUpper
attr title "packets passed up, vector(count)"
vector 26 Wireless_6_1m.hostC.udp packetReceived:vector(packetBytes) ETV
attr interpolationmode none
attr source packetReceived
attr title "packets received, vector(packetBytes)"
vector 27 Wireless_6_1m.hostC.udp passedUpPk:vector(count) ETV
attr interpolationmode none
attr source packetSentToUpper
attr title "packets passed up, vector(count)"
vector 28 Wireless_6_1m.hostD.udp packetReceived:vector(packetBytes) ETV
attr interpolationmode none
attr source packetReceived
attr title "packets received, vector(packetBytes)"
vector 29 Wireless_6_1m.hostD.udp passedUpPk:vector(count) ETV
attr interpolationmode none
attr source packetSentToUpper
attr title "packets passed up, vector(count)"
vector 30 Wireless_6_1m.hostE.udp packetReceived:vector(packetBytes) ETV
attr interpolationmode none
attr source packetReceived
attr title "packets received, vector(packetBytes)"
vector 31 Wireless_6_1m.hostE.udp passedUpPk:vector(count) ETV
attr interpolationmode none
attr source packetSentToUpper
attr title "packets passed up, vector(count)"
vector 32 Wireless_6_1m.hostF.udp packetReceived:vector(packetBytes) ETV
attr interpolationmode none
attr source packetReceived
attr title "packets received, vector(packetBytes)"
vector 33 Wireless_6_1m.hostF.udp passedUpPk:vector(count) ETV
attr interpolationmode none
attr source packetSentToUpper
attr title "packets passed up, vector(count)"
vector 34 Wireless_6_1m.hostG.udp packetReceived:vector(packetBytes) ETV
attr interpolationmode none
attr source packetReceived
attr title "packets received, vector(packetBytes)"
vector 35 Wireless_6_1m.hostG.udp passedUpPk:vector(count) ETV
attr interpolationmode none
attr source packetSentToUpper
attr title "packets passed up, vector(count)"
vector 36 Wireless_6_1m.hostB.udp packetSent:vector(packetBytes) ETV
attr interpolationmode none
attr source packetSent
attr title "packets sent, vector(packetBytes)"
vector 37 Wireless_6_1m.hostC.udp packetSent:vector(packetBytes) ETV
attr interpolationmode none
attr source packetSent
attr title "packets sent, vector(packetBytes)"
vector 38 Wireless_6_1m.hostD.udp packetSent:vector(packetBytes) ETV
attr interpolationmode none
attr source packetSent
attr title "packets sent, vector(packetBytes)"
vector 39 Wireless_6_1m.hostE.udp packetSent:vector(packetBytes) ETV
attr interpolationmode none
attr source packetSent
attr title "packets sent, vector(packetBytes)"
vector 40 Wireless_6_1m.hostF.udp packetSent:vector(packetBytes) ETV
attr interpolationmode none
attr source packetSent
attr title "packets sent, vector(packetBytes)"
vector 41 Wireless_6_1m.hostG.udp packetSent:vector(packetBytes) ETV
attr interpolationmode none
attr source packetSent
attr title "packets sent, vector(packetBytes)"
vector 42 Wireless_6_1m.hostB.wlan[0].mac.queue packetPushed:vector(packetBytes) ETV
attr interpolationmode none
attr title "packet pushed, vector(packetBytes)"
vector 43 Wireless_6_1m.hostB.wlan[0].mac.queue queueLength:vector ETV
attr interpolationmode sample-hold
attr source "count(packetPushed) - count(packetPopped) - count(packetRemoved) - count(packetDropped)"
attr title "queue length, vector"
vector 44 Wireless_6_1m.hostB.wlan[0].mac.queue packetPopped:vector(packetBytes) ETV
attr interpolationmode none
attr title "packet popped, vector(packetBytes)"
vector 45 Wireless_6_1m.hostB.wlan[0].mac.queue queueingTime:vector ETV
attr interpolationmode none
attr source queueingTime(packetPopped)
attr title "queueing times, vector"
attr unit s
vector 46 Wireless_6_1m.hostC.wlan[0].mac.queue packetPushed:vector(packetBytes) ETV
attr interpolationmode none
attr title "packet pushed, vector(packetBytes)"
vector 47 Wireless_6_1m.hostC.wlan[0].mac.queue queueLength:vector ETV
attr interpolationmode sample-hold
attr source "count(packetPushed) - count(packetPopped) - count(packetRemoved) - count(packetDropped)"
attr title "queue length, vector"
vector 48 Wireless_6_1m.hostC.wlan[0].mac.queue packetPopped:vector(packetBytes) ETV
attr interpolationmode none
attr title "packet popped, vector(packetBytes)"
vector 49 Wireless_6_1m.hostC.wlan[0].mac.queue queueingTime:vector ETV
attr interpolationmode none
attr source queueingTime(packetPopped)
attr title "queueing times, vector"
attr unit s
vector 50 Wireless_6_1m.hostD.wlan[0].mac.queue packetPushed:vector(packetBytes) ETV
attr interpolationmode none
attr title "packet pushed, vector(packetBytes)"
vector 51 Wireless_6_1m.hostD.wlan[0].mac.queue queueLength:vector ETV
attr interpolationmode sample-hold
attr source "count(packetPushed) - count(packetPopped) - count(packetRemoved) - count(packetDropped)"
attr title "queue length, vector"
vector 52 Wireless_6_1m.hostD.wlan[0].mac.queue packetPopped:vector(packetBytes) ETV
attr interpolationmode none
attr title "packet popped, vector(packetBytes)"
vector 53 Wireless_6_1m.hostD.wlan[0].mac.queue queueingTime:vector ETV
attr interpolationmode none
attr source queueingTime(packetPopped)
attr title "queueing times, vector"
attr unit s
vector 54 Wireless_6_1m.hostE.wlan[0].mac.queue packetPushed:vector(packetBytes) ETV
attr interpolationmode none
attr title "packet pushed, vector(packetBytes)"
vector 55 Wireless_6_1m.hostE.wlan[0].mac.queue queueLength:vector ETV
attr interpolationmode sample-hold
attr source "count(packetPushed) - count(packetPopped) - count(packetRemoved) - count(packetDropped)"
attr title "queue length, vector"
vector 56 Wireless_6_1m.hostE.wlan[0].mac.queue packetPopped:vector(packetBytes) ETV
attr interpolationmode none
attr title "packet popped, vector(packetBytes)"
vector 57 Wireless_6_1m.hostE.wlan[0].mac.queue queueingTime:vector ETV
attr interpolationmode none
attr source queueingTime(packetPopped)
attr title "queueing times, vector"
attr unit s
vector 58 Wireless_6_1m.hostF.wlan[0].mac.queue packetPushed:vector(packetBytes) ETV
attr interpolationmode none
attr title "packet pushed, vector(packetBytes)"
vector 59 Wireless_6_1m.hostF.wlan[0].mac.queue queueLength:vector ETV
attr interpolationmode sample-hold
attr source "count(packetPushed) - count(packetPopped) - count(packetRemoved) - count(packetDropped)"
attr title "queue length, vector"
vector 60 Wireless_6_1m.hostF.wlan[0].mac.queue packetPopped:vector(packetBytes) ETV
attr interpolationmode none
attr title "packet popped, vector(packetBytes)"
vector 61 Wireless_6_1m.hostF.wlan[0].mac.queue queueingTime:vector ETV
attr interpolationmode none
attr source queueingTime(packetPopped)
attr title "queueing times, vector"
attr unit s
vector 62 Wireless_6_1m.hostG.wlan[0].mac.queue packetPushed:vector(packetBytes) ETV
attr interpolationmode none
attr title "packet pushed, vector(packetBytes)"
vector 63 Wireless_6_1m.hostG.wlan[0].mac.queue queueLength:vector ETV
attr interpolationmode sample-hold
attr source "count(packetPushed) - count(packetPopped) - count(packetRemoved) - count(packetDropped)"
attr title "queue length, vector"
vector 64 Wireless_6_1m.hostG.wlan[0].mac.queue packetPopped:vector(packetBytes) ETV
attr interpolationmode none
attr title "packet popped, vector(packetBytes)"
vector 65 Wireless_6_1m.hostG.wlan[0].mac.queue queueingTime:vector ETV
attr interpolationmode none
attr source queueingTime(packetPopped)
attr title "queueing times, vector"
attr unit s
vector 66 Wireless_6_1m.hostB.wlan[0].radio transmissionState:vector ETV
attr interpolationmode sample-hold
attr source transmissionStateChanged
attr title "Radio transmission state, vector"
vector 67 Wireless_6_1m.hostC.wlan[0].radio transmissionState:vector ETV
attr interpolationmode sample-hold
attr source transmissionStateChanged
attr title "Radio transmission state, vector"
vector 68 Wireless_6_1m.hostA.wlan[0].mac packetDropIncorrectlyReceived:vector(packetBytes) ETV
attr interpolationmode none
attr source packetDropReasonIsIncorrectlyReceived(packetDropped)
attr title "packet drop: incorrectly received, vector(packetBytes)"
vector 69 Wireless_6_1m.hostE.wlan[0].mac packetDropNotAddressedToUs:vector(packetBytes) ETV
attr interpolationmode none
attr source packetDropReasonIsNotAddressedToUs(packetDropped)
attr title "packet drop: not addressed to us, vector(packetBytes)"
vector 70 Wireless_6_1m.hostG.wlan[0].mac packetDropNotAddressedToUs:vector(packetBytes) ETV
attr interpolationmode none
attr source packetDropReasonIsNotAddressedToUs(packetDropped)
attr title "packet drop: not addressed to us, vector(packetBytes)"
vector 71 Wireless_6_1m.hostD.wlan[0].mac packetDropNotAddressedToUs:vector(packetBytes) ETV
attr interpolationmode none
attr source packetDropReasonIsNotAddressedToUs(packetDropped)
attr title "packet drop: not addressed to us, vector(packetBytes)"
vector 72 Wireless_6_1m.hostF.wlan[0].mac packetDropNotAddressedToUs:vector(packetBytes) ETV
attr interpolationmode none
attr source packetDropReasonIsNotAddressedToUs(packetDropped)
attr title "packet drop: not addressed to us, vector(packetBytes)"
vector 73 Wireless_6_1m.hostD.wlan[0].radio transmissionState:vector ETV
attr interpolationmode sample-hold
attr source transmissionStateChanged
attr title "Radio transmission state, vector"
vector 74 Wireless_6_1m.hostC.wlan[0].mac packetDropNotAddressedToUs:vector(packetBytes) ETV
attr interpolationmode none
attr source packetDropReasonIsNotAddressedToUs(packetDropped)
attr title "packet drop: not addressed to us, vector(packetBytes)"
vector 75 Wireless_6_1m.hostA.udp passedUpPk:vector(count) ETV
attr interpolationmode none
attr source packetSentToUpper
attr title "packets passed up, vector(count)"
vector 76 Wireless_6_1m.hostB.wlan[0].mac packetDropNotAddressedToUs:vector(packetBytes) ETV
attr interpolationmode none
attr source packetDropReasonIsNotAddressedToUs(packetDropped)
attr title "packet drop: not addressed to us, vector(packetBytes)"
vector 77 Wireless_6_1m.hostE.wlan[0].radio transmissionState:vector ETV
attr interpolationmode sample-hold
attr source transmissionStateChanged
attr title "Radio transmission state, vector"
vector 78 Wireless_6_1m.hostF.wlan[0].radio transmissionState:vector ETV
attr interpolationmode sample-hold
attr source transmissionStateChanged
attr title "Radio transmission state, vector"
vector 79 Wireless_6_1m.hostG.wlan[0].radio transmissionState:vector ETV
attr interpolationmode sample-hold
attr source transmissionStateChanged
attr title "Radio transmission state, vector"
0	0	0	0
0	0	0	0
0	0	0	2
0	22	0.00033	3
0	30	0.000876	2
0	150	0.002238012449	3
0	158	0.002456012449	2
0	200	0.003362019121	3
0	208	0.003580019121	2
0	249	0.004226025793	3
0	257	0.004444025793	2
0	297	0.005150032465	3
0	305	0.005368032465	2
0	344	0.006274039137	3
0	352	0.006492039137	2
0	390	0.007178045809	3
0	398	0.007396045809	2
1	0	0	0
1	0	0	0
1	0	0	2
1	85	0.000986003336	3
1	101	0.001532003336	2
1	320	0.005718035801	3
1	328	0.006264035801	2
2	0	0	0
2	0	0	0
2	0	0	2
2	86	0.000986003336	3
2	102	0.001532003336	2
2	366	0.006622042473	3
2	374	0.007168042473	2
3	0	0	0
3	0	0	0
3	0	0	2
3	124	0.001682009113	3
3	134	0.002228009113	2
4	0	0	0
4	0	0	0
4	0	0	2
4	176	0.002806015785	3
4	184	0.003352015785	2
5	0	0	0
5	0	0	0
5	0	0	2
5	225	0.003670022457	3
5	233	0.004216022457	2
6	0	0	0
6	0	0	0
6	0	0	2
6	273	0.004594029129	3
6	281	0.005140029129	2
7	0	0	1
7	22	0.00033	0
7	30	0.000876	1
7	89	0.000986006672	3
7	103	0.001532006672	1
7	126	0.001682012449	3
7	135	0.002228012449	1
7	150	0.002238012449	0
7	158	0.002456012449	1
7	178	0.002806019121	3
7	185	0.003352019121	1
7	200	0.003362019121	0
7	208	0.003580019121	1
7	227	0.003670025793	3
7	234	0.004216025793	1
7	249	0.004226025793	0
7	257	0.004444025793	1
7	275	0.004594032465	3
7	282	0.005140032465	1
7	297	0.005150032465	0
7	305	0.005368032465	1
7	322	0.005718039137	3
7	329	0.006264039137	1
7	344	0.006274039137	0
7	352	0.006492039137	1
7	368	0.006622045809	3
7	375	0.007168045809	1
7	390	0.007178045809	0
7	398	0.007396045809	1
8	0	0	1
8	24	0.000330003336	3
8	31	0.000876003336	1
8	85	0.000986003336	0
8	101	0.001532003336	2
8	119	0.001532010007	1
8	129	0.00168201489	3
8	144	0.00222801489	1
8	152	0.002238015785	3
8	159	0.002456015785	1
8	179	0.002806019121	3
8	186	0.003352019121	1
8	202	0.003362022457	3
8	209	0.003580022457	1
8	230	0.003670028234	3
8	243	0.004216028234	1
8	251	0.004226029129	3
8	258	0.004444029129	1
8	276	0.004594032465	3
8	283	0.005140032465	1
8	299	0.005150035801	3
8	306	0.005368035801	1
8	320	0.005718035801	0
8	328	0.006264035801	1
8	346	0.006274042473	3
8	353	0.006492042473	1
8	373	0.006622049144	3
8	388	0.007168049144	1
8	392	0.007178049145	3
8	399	0.007396049145	1
9	0	0	1
9	25	0.000330003336	3
9	32	0.000876003336	1
9	86	0.000986003336	0
9	102	0.001532003336	2
9	118	0.001532010007	1
9	127	0.001682012449	3
9	136	0.002228012449	1
9	153	0.002238015785	3
9	160	0.002456015785	1
9	181	0.002806021562	3
9	194	0.003352021562	1
9	203	0.003362022457	3
9	210	0.003580022457	1
9	228	0.003670025793	3
9	235	0.004216025793	1
9	252	0.004226029129	3
9	259	0.004444029129	1
9	278	0.004594034906	3
9	291	0.005140034906	1
9	300	0.005150035801	3
9	307	0.005368035801	1
9	327	0.005718042472	3
9	342	0.006264042472	1
9	347	0.006274042473	3
9	354	0.006492042473	1
9	366	0.006622042473	0
9	374	0.007168042473	1
9	393	0.007178049145	3
9	400	0.007396049145	1
10	0	0	1
10	26	0.000330003336	3
10	33	0.000876003336	1
10	93	0.000986006672	3
10	107	0.001532006672	2
10	114	0.001532009113	1
10	124	0.001682009113	0
10	134	0.002228009113	1
10	154	0.002238015785	3
10	161	0.002456015785	1
10	180	0.002806019121	3
10	187	0.003352019121	1
10	204	0.003362022457	3
10	211	0.003580022457	1
10	231	0.003670028234	3
10	244	0.004216028234	1
10	253	0.004226029129	3
10	260	0.004444029129	1
10	280	0.0045940358	3
10	295	0.0051400358	1
10	301	0.005150035801	3
10	308	0.005368035801	1
10	325	0.005718041578	3
10	338	0.006264041578	1
10	348	0.006274042473	3
10	355	0.006492042473	1
10	369	0.006622045809	3
10	376	0.007168045809	1
10	394	0.007178049145	3
10	401	0.007396049145	1
11	0	0	1
11	27	0.000330003336	3
11	34	0.000876003336	1
11	90	0.000986006672	3
11	104	0.001532006672	2
11	116	0.001532009113	1
11	128	0.001682012449	3
11	137	0.002228012449	1
11	155	0.002238015785	3
11	162	0.002456015785	1
11	176	0.002806015785	0
11	184	0.003352015785	1
11	205	0.003362022457	3
11	212	0.003580022457	1
11	232	0.003670029128	3
11	247	0.004216029128	1
11	254	0.004226029129	3
11	261	0.004444029129	1
11	279	0.004594034906	3
11	292	0.005140034906	1
11	302	0.005150035801	3
11	309	0.005368035801	1
11	323	0.005718039137	3
11	330	0.006264039137	1
11	349	0.006274042473	3
11	356	0.006492042473	1
11	371	0.00662204825	3
11	384	0.00716804825	1
11	395	0.007178049145	3
11	402	0.007396049145	1
12	0	0	1
12	28	0.000330003336	3
12	35	0.000876003336	1
12	94	0.000986006672	3
12	108	0.001532006672	2
12	115	0.001532009113	1
12	130	0.00168201489	3
12	145	0.00222801489	1
12	156	0.002238015785	3
12	163	0.002456015785	1
12	183	0.002806022456	3
12	198	0.003352022456	1
12	206	0.003362022457	3
12	213	0.003580022457	1
12	225	0.003670022457	0
12	233	0.004216022457	1
12	255	0.004226029129	3
12	262	0.004444029129	1
12	277	0.004594032465	3
12	284	0.005140032465	1
12	303	0.005150035801	3
12	310	0.005368035801	1
12	326	0.005718041578	3
12	339	0.006264041578	1
12	350	0.006274042473	3
12	357	0.006492042473	1
12	370	0.006622045809	3
12	377	0.007168045809	1
12	396	0.007178049145	3
12	403	0.007396049145	1
13	0	0	1
13	29	0.000330003336	3
13	36	0.000876003336	1
13	91	0.000986006672	3
13	105	0.001532006672	2
13	117	0.001532009113	1
13	131	0.001682015784	3
13	148	0.002228015784	1
13	157	0.002238015785	3
13	164	0.002456015785	1
13	182	0.002806021562	3
13	195	0.003352021562	1
13	207	0.003362022457	3
13	214	0.003580022457	1
13	229	0.003670025793	3
13	236	0.004216025793	1
13	256	0.004226029129	3
13	263	0.004444029129	1
13	273	0.004594029129	0
13	281	0.005140029129	1
13	304	0.005150035801	3
13	311	0.005368035801	1
13	324	0.005718039137	3
13	331	0.006264039137	1
13	351	0.006274042473	3
13	358	0.006492042473	1
13	372	0.00662204825	3
13	385	0.00716804825	1
13	397	0.007178049145	3
13	404	0.007396049145	1
14	3	0	12
15	17	0	32
16	17	0	32
17	18	0	59
18	18	0	1
18	18	0	0
19	18	0	59
20	18	0	0
21	20	0	12
21	142	0.002228012449	12
21	192	0.003352019121	12
21	241	0.004216025793	12
21	289	0.005140032465	12
21	336	0.006264039137	12
21	382	0.007168045809	12
22	20	0	1
23	22	0.00033	1
23	23	0.00033	2
23	30	0.000876	1
23	30	0.000876	0
23	150	0.002238012449	1
23	151	0.002238012449	2
23	158	0.002456012449	1
23	158	0.002456012449	0
23	200	0.003362019121	1
23	201	0.003362019121	2
23	208	0.003580019121	1
23	208	0.003580019121	0
23	249	0.004226025793	1
23	250	0.004226025793	2
23	257	0.004444025793	1
23	257	0.004444025793	0
23	297	0.005150032465	1
23	298	0.005150032465	2
23	305	0.005368032465	1
23	305	0.005368032465	0
23	344	0.006274039137	1
23	345	0.006274039137	2
23	352	0.006492039137	1
23	352	0.006492039137	0
23	390	0.007178045809	1
23	391	0.007178045809	2
23	398	0.007396045809	1
23	398	0.007396045809	0
24	49	0.000876003336	12
25	49	0.000876003336	1
26	50	0.000876003336	12
27	50	0.000876003336	1
28	51	0.000876003336	12
29	51	0.000876003336	1
30	52	0.000876003336	12
31	52	0.000876003336	1
32	53	0.000876003336	12
33	53	0.000876003336	1
34	54	0.000876003336	12
35	54	0.000876003336	1
36	61	0.000876003336	12
37	62	0.000876003336	12
38	63	0.000876003336	12
39	64	0.000876003336	12
40	65	0.000876003336	12
41	66	0.000876003336	12
42	73	0.000876003336	59
43	73	0.000876003336	1
43	73	0.000876003336	0
44	73	0.000876003336	59
45	73	0.000876003336	0
46	74	0.000876003336	59
47	74	0.000876003336	1
47	74	0.000876003336	0
48	74	0.000876003336	59
49	74	0.000876003336	0
50	75	0.000876003336	59
51	75	0.000876003336	1
51	75	0.000876003336	0
52	75	0.000876003336	59
53	75	0.000876003336	0
54	76	0.000876003336	59
55	76	0.000876003336	1
55	76	0.000876003336	0
56	76	0.000876003336	59
57	76	0.000876003336	0
58	77	0.000876003336	59
59	77	0.000876003336	1
59	77	0.000876003336	0
60	77	0.000876003336	59
61	77	0.000876003336	0
62	78	0.000876003336	59
63	78	0.000876003336	1
63	78	0.000876003336	0
64	78	0.000876003336	59
65	78	0.000876003336	0
66	85	0.000986003336	1
66	87	0.000986003336	2
66	101	0.001532003336	1
66	101	0.001532003336	0
66	320	0.005718035801	1
66	321	0.005718035801	2
66	328	0.006264035801	1
66	328	0.006264035801	0
67	86	0.000986003336	1
67	88	0.000986003336	2
67	102	0.001532003336	1
67	102	0.001532003336	0
67	366	0.006622042473	1
67	367	0.006622042473	2
67	374	0.007168042473	1
67	374	0.007168042473	0
68	109	0.001532006672	59
69	110	0.001532006672	59
69	140	0.002228012449	59
69	248	0.004216029128	59
69	294	0.005140034906	59
69	333	0.006264039137	59
69	386	0.00716804825	59
70	111	0.001532006672	59
70	149	0.002228015784	59
70	197	0.003352021562	59
70	239	0.004216025793	59
70	334	0.006264039137	59
70	387	0.00716804825	59
71	112	0.001532006672	59
71	190	0.003352019121	59
71	246	0.004216028234	59
71	296	0.0051400358	59
71	340	0.006264041578	59
71	379	0.007168045809	59
72	113	0.001532006672	59
72	147	0.00222801489	59
72	199	0.003352022456	59
72	287	0.005140032465	59
72	341	0.006264041578	59
72	380	0.007168045809	59
73	124	0.001682009113	1
73	125	0.001682009113	2
73	134	0.002228009113	1
73	134	0.002228009113	0
74	139	0.002228012449	59
74	196	0.003352021562	59
74	238	0.004216025793	59
74	293	0.005140034906	59
74	343	0.006264042472	59
75	142	0.002228012449	1
75	192	0.003352019121	2
75	241	0.004216025793	3
75	289	0.005140032465	4
75	336	0.006264039137	5
75	382	0.007168045809	6
76	146	0.00222801489	59
76	189	0.003352019121	59
76	245	0.004216028234	59
76	286	0.005140032465	59
76	389	0.007168049144	59
77	176	0.002806015785	1
77	177	0.002806015785	2
77	184	0.003352015785	1
77	184	0.003352015785	0
78	225	0.003670022457	1
78	226	0.003670022457	2
78	233	0.004216022457	1
78	233	0.004216022457	0
79	273	0.004594029129	1
79	274	0.004594029129	2
79	281	0.005140029129	1
79	281	0.005140029129	0

