version 2
run Wireless01-143-20200710-20:02:25-3160
attr configname Wireless01
attr datetime 20200710-20:02:25
attr experiment Wireless01
attr inifile omnetpp.ini
attr iterationvars $name=Wireless_6_5m
attr iterationvarsf name=Wireless#_6#_5m-
attr measurement $name=Wireless_6_5m
attr network "${name=Wireless_3_1m,Wireless_3_5m, Wireless_3_10m, Wireless_6_1m, Wireless_6_5m, Wireless_6_10m, Wireless_12_1m, Wireless_12_5m, Wireless_12_10m }"
attr processid 3160
attr repetition 23
attr replication #23
attr resultdir results
attr runnumber 143
attr seedset 143
itervar name Wireless_6_5m
param *.hostA.numApps 1
param *.hostA.app[0].typename "\"TDOAApp\""
param *.hostA.app[0].destAddresses "\"Broadcast\""
param *.hostA.app[0].destPort 5000
param *.hostA.app[0].localPort 6000
param *.hostA.app[0].isReceiver false
param *.hostA.app[0].Nome_arquivo "\"Wireless_6_5m.csv\""
param *.host*.numApps 1
param *.host*.app[0].typename "\"TDOAApp\""
param *.host*.app[0].localPort 5000
param *.host*.app[0].destPort 6000
param *.host*.app[0].destAddresses "\"hostA\""
param *.host*.app[0].isReceiver true
param *.host*.wlan[0].typename "\"WirelessInterface\""
param *.radioMedium.typename "\"ApskScalarRadioMedium\""
param *.radioMedium.backgroundNoise.power -90dBm
param *.radioMedium.mediumLimitCache.centerFrequency 2GHz
param *.host*.wlan[0].radio.typename "\"ApskScalarRadio\""
param *.host*.wlan[0].radio.centerFrequency 2GHz
param *.host*.wlan[0].radio.bandwidth 2MHz
param *.host*.wlan[0].radio.transmitter.power 1.4mW
param *.host*.wlan[0].radio.transmitter.preambleDuration 10us
param *.host*.wlan[0].radio.transmitter.headerLength 8B
param *.host*.wlan[0].radio.receiver.sensitivity -85dBm
param *.host*.wlan[0].radio.receiver.energyDetection -85dBm
param *.host*.wlan[0].radio.receiver.snirThreshold 4dB
param *.host*.wlan[0].mac.typename "\"CsmaCaMac\""
param *.host*.wlan[0].mac.ackTimeout 300us
param *.host*.wlan[0].mac.useAck true
param *.host*.wlan[0].mac.fullDuplex false
param *.host*.wlan[0].radio.receiver.ignoreInterference true
param *.host*.wlan[0].mac.headerLength 23B
param *.host*.**.bitrate 1Mbps
param *.host*.ipv4.arp.typename "\"GlobalArp\""
param **.ip.limitedBroadcast true

vector 0 Wireless_6_5m.hostA.wlan[0].radio radioMode:vector ETV
attr interpolationmode sample-hold
attr source radioModeChanged
attr title "Radio mode, vector"
vector 1 Wireless_6_5m.hostB.wlan[0].radio radioMode:vector ETV
attr interpolationmode sample-hold
attr source radioModeChanged
attr title "Radio mode, vector"
vector 2 Wireless_6_5m.hostC.wlan[0].radio radioMode:vector ETV
attr interpolationmode sample-hold
attr source radioModeChanged
attr title "Radio mode, vector"
vector 3 Wireless_6_5m.hostD.wlan[0].radio radioMode:vector ETV
attr interpolationmode sample-hold
attr source radioModeChanged
attr title "Radio mode, vector"
vector 4 Wireless_6_5m.hostE.wlan[0].radio radioMode:vector ETV
attr interpolationmode sample-hold
attr source radioModeChanged
attr title "Radio mode, vector"
vector 5 Wireless_6_5m.hostF.wlan[0].radio radioMode:vector ETV
attr interpolationmode sample-hold
attr source radioModeChanged
attr title "Radio mode, vector"
vector 6 Wireless_6_5m.hostG.wlan[0].radio radioMode:vector ETV
attr interpolationmode sample-hold
attr source radioModeChanged
attr title "Radio mode, vector"
vector 7 Wireless_6_5m.hostA.wlan[0].radio receptionState:vector ETV
attr interpolationmode sample-hold
attr source receptionStateChanged
attr title "Radio reception state, vector"
vector 8 Wireless_6_5m.hostB.wlan[0].radio receptionState:vector ETV
attr interpolationmode sample-hold
attr source receptionStateChanged
attr title "Radio reception state, vector"
vector 9 Wireless_6_5m.hostC.wlan[0].radio receptionState:vector ETV
attr interpolationmode sample-hold
attr source receptionStateChanged
attr title "Radio reception state, vector"
vector 10 Wireless_6_5m.hostD.wlan[0].radio receptionState:vector ETV
attr interpolationmode sample-hold
attr source receptionStateChanged
attr title "Radio reception state, vector"
vector 11 Wireless_6_5m.hostE.wlan[0].radio receptionState:vector ETV
attr interpolationmode sample-hold
attr source receptionStateChanged
attr title "Radio reception state, vector"
vector 12 Wireless_6_5m.hostF.wlan[0].radio receptionState:vector ETV
attr interpolationmode sample-hold
attr source receptionStateChanged
attr title "Radio reception state, vector"
vector 13 Wireless_6_5m.hostG.wlan[0].radio receptionState:vector ETV
attr interpolationmode sample-hold
attr source receptionStateChanged
attr title "Radio reception state, vector"
vector 14 Wireless_6_5m.hostA.udp packetSent:vector(packetBytes) ETV
attr interpolationmode none
attr source packetSent
attr title "packets sent, vector(packetBytes)"
vector 15 Wireless_6_5m.hostA.lo[0].lo rcvdPkFromHl:vector(packetBytes) ETV
attr interpolationmode none
attr source packetReceivedFromUpper
attr title "packets received from higher layer, vector(packetBytes)"
vector 16 Wireless_6_5m.hostA.lo[0].lo passedUpPk:vector(packetBytes) ETV
attr interpolationmode none
attr source packetSentToUpper
attr title "packets passed to higher layer, vector(packetBytes)"
vector 17 Wireless_6_5m.hostA.wlan[0].mac.queue packetPushed:vector(packetBytes) ETV
attr interpolationmode none
attr title "packet pushed, vector(packetBytes)"
vector 18 Wireless_6_5m.hostA.wlan[0].mac.queue queueLength:vector ETV
attr interpolationmode sample-hold
attr source "count(packetPushed) - count(packetPopped) - count(packetRemoved) - count(packetDropped)"
attr title "queue length, vector"
vector 19 Wireless_6_5m.hostA.wlan[0].mac.queue packetPopped:vector(packetBytes) ETV
attr interpolationmode none
attr title "packet popped, vector(packetBytes)"
vector 20 Wireless_6_5m.hostA.wlan[0].mac.queue queueingTime:vector ETV
attr interpolationmode none
attr source queueingTime(packetPopped)
attr title "queueing times, vector"
attr unit s
vector 21 Wireless_6_5m.hostA.udp packetReceived:vector(packetBytes) ETV
attr interpolationmode none
attr source packetReceived
attr title "packets received, vector(packetBytes)"
vector 22 Wireless_6_5m.hostA.udp droppedPkWrongPort:vector(count) ETV
attr interpolationmode none
attr source packetDropReasonIsNoPortFound(packetDropped)
attr title "packets dropped (wrong port), vector(count)"
vector 23 Wireless_6_5m.hostA.wlan[0].radio transmissionState:vector ETV
attr interpolationmode sample-hold
attr source transmissionStateChanged
attr title "Radio transmission state, vector"
vector 24 Wireless_6_5m.hostB.udp packetReceived:vector(packetBytes) ETV
attr interpolationmode none
attr source packetReceived
attr title "packets received, vector(packetBytes)"
vector 25 Wireless_6_5m.hostB.udp passedUpPk:vector(count) ETV
attr interpolationmode none
attr source packetSentToUpper
attr title "packets passed up, vector(count)"
vector 26 Wireless_6_5m.hostC.udp packetReceived:vector(packetBytes) ETV
attr interpolationmode none
attr source packetReceived
attr title "packets received, vector(packetBytes)"
vector 27 Wireless_6_5m.hostC.udp passedUpPk:vector(count) ETV
attr interpolationmode none
attr source packetSentToUpper
attr title "packets passed up, vector(count)"
vector 28 Wireless_6_5m.hostD.udp packetReceived:vector(packetBytes) ETV
attr interpolationmode none
attr source packetReceived
attr title "packets received, vector(packetBytes)"
vector 29 Wireless_6_5m.hostD.udp passedUpPk:vector(count) ETV
attr interpolationmode none
attr source packetSentToUpper
attr title "packets passed up, vector(count)"
vector 30 Wireless_6_5m.hostE.udp packetReceived:vector(packetBytes) ETV
attr interpolationmode none
attr source packetReceived
attr title "packets received, vector(packetBytes)"
vector 31 Wireless_6_5m.hostE.udp passedUpPk:vector(count) ETV
attr interpolationmode none
attr source packetSentToUpper
attr title "packets passed up, vector(count)"
vector 32 Wireless_6_5m.hostF.udp packetReceived:vector(packetBytes) ETV
attr interpolationmode none
attr source packetReceived
attr title "packets received, vector(packetBytes)"
vector 33 Wireless_6_5m.hostF.udp passedUpPk:vector(count) ETV
attr interpolationmode none
attr source packetSentToUpper
attr title "packets passed up, vector(count)"
vector 34 Wireless_6_5m.hostG.udp packetReceived:vector(packetBytes) ETV
attr interpolationmode none
attr source packetReceived
attr title "packets received, vector(packetBytes)"
vector 35 Wireless_6_5m.hostG.udp passedUpPk:vector(count) ETV
attr interpolationmode none
attr source packetSentToUpper
attr title "packets passed up, vector(count)"
vector 36 Wireless_6_5m.hostB.udp packetSent:vector(packetBytes) ETV
attr interpolationmode none
attr source packetSent
attr title "packets sent, vector(packetBytes)"
vector 37 Wireless_6_5m.hostC.udp packetSent:vector(packetBytes) ETV
attr interpolationmode none
attr source packetSent
attr title "packets sent, vector(packetBytes)"
vector 38 Wireless_6_5m.hostD.udp packetSent:vector(packetBytes) ETV
attr interpolationmode none
attr source packetSent
attr title "packets sent, vector(packetBytes)"
vector 39 Wireless_6_5m.hostE.udp packetSent:vector(packetBytes) ETV
attr interpolationmode none
attr source packetSent
attr title "packets sent, vector(packetBytes)"
vector 40 Wireless_6_5m.hostF.udp packetSent:vector(packetBytes) ETV
attr interpolationmode none
attr source packetSent
attr title "packets sent, vector(packetBytes)"
vector 41 Wireless_6_5m.hostG.udp packetSent:vector(packetBytes) ETV
attr interpolationmode none
attr source packetSent
attr title "packets sent, vector(packetBytes)"
vector 42 Wireless_6_5m.hostB.wlan[0].mac.queue packetPushed:vector(packetBytes) ETV
attr interpolationmode none
attr title "packet pushed, vector(packetBytes)"
vector 43 Wireless_6_5m.hostB.wlan[0].mac.queue queueLength:vector ETV
attr interpolationmode sample-hold
attr source "count(packetPushed) - count(packetPopped) - count(packetRemoved) - count(packetDropped)"
attr title "queue length, vector"
vector 44 Wireless_6_5m.hostB.wlan[0].mac.queue packetPopped:vector(packetBytes) ETV
attr interpolationmode none
attr title "packet popped, vector(packetBytes)"
vector 45 Wireless_6_5m.hostB.wlan[0].mac.queue queueingTime:vector ETV
attr interpolationmode none
attr source queueingTime(packetPopped)
attr title "queueing times, vector"
attr unit s
vector 46 Wireless_6_5m.hostC.wlan[0].mac.queue packetPushed:vector(packetBytes) ETV
attr interpolationmode none
attr title "packet pushed, vector(packetBytes)"
vector 47 Wireless_6_5m.hostC.wlan[0].mac.queue queueLength:vector ETV
attr interpolationmode sample-hold
attr source "count(packetPushed) - count(packetPopped) - count(packetRemoved) - count(packetDropped)"
attr title "queue length, vector"
vector 48 Wireless_6_5m.hostC.wlan[0].mac.queue packetPopped:vector(packetBytes) ETV
attr interpolationmode none
attr title "packet popped, vector(packetBytes)"
vector 49 Wireless_6_5m.hostC.wlan[0].mac.queue queueingTime:vector ETV
attr interpolationmode none
attr source queueingTime(packetPopped)
attr title "queueing times, vector"
attr unit s
vector 50 Wireless_6_5m.hostD.wlan[0].mac.queue packetPushed:vector(packetBytes) ETV
attr interpolationmode none
attr title "packet pushed, vector(packetBytes)"
vector 51 Wireless_6_5m.hostD.wlan[0].mac.queue queueLength:vector ETV
attr interpolationmode sample-hold
attr source "count(packetPushed) - count(packetPopped) - count(packetRemoved) - count(packetDropped)"
attr title "queue length, vector"
vector 52 Wireless_6_5m.hostD.wlan[0].mac.queue packetPopped:vector(packetBytes) ETV
attr interpolationmode none
attr title "packet popped, vector(packetBytes)"
vector 53 Wireless_6_5m.hostD.wlan[0].mac.queue queueingTime:vector ETV
attr interpolationmode none
attr source queueingTime(packetPopped)
attr title "queueing times, vector"
attr unit s
vector 54 Wireless_6_5m.hostE.wlan[0].mac.queue packetPushed:vector(packetBytes) ETV
attr interpolationmode none
attr title "packet pushed, vector(packetBytes)"
vector 55 Wireless_6_5m.hostE.wlan[0].mac.queue queueLength:vector ETV
attr interpolationmode sample-hold
attr source "count(packetPushed) - count(packetPopped) - count(packetRemoved) - count(packetDropped)"
attr title "queue length, vector"
vector 56 Wireless_6_5m.hostE.wlan[0].mac.queue packetPopped:vector(packetBytes) ETV
attr interpolationmode none
attr title "packet popped, vector(packetBytes)"
vector 57 Wireless_6_5m.hostE.wlan[0].mac.queue queueingTime:vector ETV
attr interpolationmode none
attr source queueingTime(packetPopped)
attr title "queueing times, vector"
attr unit s
vector 58 Wireless_6_5m.hostF.wlan[0].mac.queue packetPushed:vector(packetBytes) ETV
attr interpolationmode none
attr title "packet pushed, vector(packetBytes)"
vector 59 Wireless_6_5m.hostF.wlan[0].mac.queue queueLength:vector ETV
attr interpolationmode sample-hold
attr source "count(packetPushed) - count(packetPopped) - count(packetRemoved) - count(packetDropped)"
attr title "queue length, vector"
vector 60 Wireless_6_5m.hostF.wlan[0].mac.queue packetPopped:vector(packetBytes) ETV
attr interpolationmode none
attr title "packet popped, vector(packetBytes)"
vector 61 Wireless_6_5m.hostF.wlan[0].mac.queue queueingTime:vector ETV
attr interpolationmode none
attr source queueingTime(packetPopped)
attr title "queueing times, vector"
attr unit s
vector 62 Wireless_6_5m.hostG.wlan[0].mac.queue packetPushed:vector(packetBytes) ETV
attr interpolationmode none
attr title "packet pushed, vector(packetBytes)"
vector 63 Wireless_6_5m.hostG.wlan[0].mac.queue queueLength:vector ETV
attr interpolationmode sample-hold
attr source "count(packetPushed) - count(packetPopped) - count(packetRemoved) - count(packetDropped)"
attr title "queue length, vector"
vector 64 Wireless_6_5m.hostG.wlan[0].mac.queue packetPopped:vector(packetBytes) ETV
attr interpolationmode none
attr title "packet popped, vector(packetBytes)"
vector 65 Wireless_6_5m.hostG.wlan[0].mac.queue queueingTime:vector ETV
attr interpolationmode none
attr source queueingTime(packetPopped)
attr title "queueing times, vector"
attr unit s
vector 66 Wireless_6_5m.hostE.wlan[0].radio transmissionState:vector ETV
attr interpolationmode sample-hold
attr source transmissionStateChanged
attr title "Radio transmission state, vector"
vector 67 Wireless_6_5m.hostF.wlan[0].radio transmissionState:vector ETV
attr interpolationmode sample-hold
attr source transmissionStateChanged
attr title "Radio transmission state, vector"
vector 68 Wireless_6_5m.hostA.wlan[0].mac packetDropIncorrectlyReceived:vector(packetBytes) ETV
attr interpolationmode none
attr source packetDropReasonIsIncorrectlyReceived(packetDropped)
attr title "packet drop: incorrectly received, vector(packetBytes)"
vector 69 Wireless_6_5m.hostB.wlan[0].mac packetDropNotAddressedToUs:vector(packetBytes) ETV
attr interpolationmode none
attr source packetDropReasonIsNotAddressedToUs(packetDropped)
attr title "packet drop: not addressed to us, vector(packetBytes)"
vector 70 Wireless_6_5m.hostD.wlan[0].mac packetDropNotAddressedToUs:vector(packetBytes) ETV
attr interpolationmode none
attr source packetDropReasonIsNotAddressedToUs(packetDropped)
attr title "packet drop: not addressed to us, vector(packetBytes)"
vector 71 Wireless_6_5m.hostC.wlan[0].mac packetDropNotAddressedToUs:vector(packetBytes) ETV
attr interpolationmode none
attr source packetDropReasonIsNotAddressedToUs(packetDropped)
attr title "packet drop: not addressed to us, vector(packetBytes)"
vector 72 Wireless_6_5m.hostG.wlan[0].mac packetDropIncorrectlyReceived:vector(packetBytes) ETV
attr interpolationmode none
attr source packetDropReasonIsIncorrectlyReceived(packetDropped)
attr title "packet drop: incorrectly received, vector(packetBytes)"
vector 73 Wireless_6_5m.hostB.wlan[0].radio transmissionState:vector ETV
attr interpolationmode sample-hold
attr source transmissionStateChanged
attr title "Radio transmission state, vector"
vector 74 Wireless_6_5m.hostE.wlan[0].mac packetDropNotAddressedToUs:vector(packetBytes) ETV
attr interpolationmode none
attr source packetDropReasonIsNotAddressedToUs(packetDropped)
attr title "packet drop: not addressed to us, vector(packetBytes)"
vector 75 Wireless_6_5m.hostG.wlan[0].mac packetDropNotAddressedToUs:vector(packetBytes) ETV
attr interpolationmode none
attr source packetDropReasonIsNotAddressedToUs(packetDropped)
attr title "packet drop: not addressed to us, vector(packetBytes)"
vector 76 Wireless_6_5m.hostA.udp passedUpPk:vector(count) ETV
attr interpolationmode none
attr source packetSentToUpper
attr title "packets passed up, vector(count)"
vector 77 Wireless_6_5m.hostF.wlan[0].mac packetDropNotAddressedToUs:vector(packetBytes) ETV
attr interpolationmode none
attr source packetDropReasonIsNotAddressedToUs(packetDropped)
attr title "packet drop: not addressed to us, vector(packetBytes)"
vector 78 Wireless_6_5m.hostC.wlan[0].radio transmissionState:vector ETV
attr interpolationmode sample-hold
attr source transmissionStateChanged
attr title "Radio transmission state, vector"
vector 79 Wireless_6_5m.hostD.wlan[0].radio transmissionState:vector ETV
attr interpolationmode sample-hold
attr source transmissionStateChanged
attr title "Radio transmission state, vector"
vector 80 Wireless_6_5m.hostG.wlan[0].radio transmissionState:vector ETV
attr interpolationmode sample-hold
attr source transmissionStateChanged
attr title "Radio transmission state, vector"
0	0	0	0
0	0	0	0
0	0	0	2
0	22	0.00025	3
0	30	0.000796	2
0	150	0.002418062243	3
0	158	0.002636062243	2
0	200	0.003382095599	3
0	208	0.003600095599	2
0	249	0.004226128955	3
0	257	0.004444128955	2
0	297	0.005070162311	3
0	305	0.005288162311	2
0	344	0.006234195667	3
0	352	0.006452195667	2
0	390	0.007438229023	3
0	398	0.007656229023	2
1	0	0	0
1	0	0	0
1	0	0	2
1	124	0.001862045565	3
1	134	0.002408045565	2
2	0	0	0
2	0	0	0
2	0	0	2
2	176	0.002826078921	3
2	184	0.003372078921	2
3	0	0	0
3	0	0	0
3	0	0	2
3	225	0.003670112277	3
3	233	0.004216112277	2
4	0	0	0
4	0	0	0
4	0	0	2
4	85	0.001246016678	3
4	101	0.001792016678	2
4	366	0.006882212345	3
4	374	0.007428212345	2
5	0	0	0
5	0	0	0
5	0	0	2
5	86	0.001246016678	3
5	102	0.001792016678	2
5	320	0.005678178989	3
5	328	0.006224178989	2
6	0	0	0
6	0	0	0
6	0	0	2
6	273	0.004514145633	3
6	281	0.005060145633	2
7	0	0	1
7	22	0.00025	0
7	30	0.000796	1
7	89	0.001246033356	3
7	103	0.001792033356	1
7	126	0.001862062243	3
7	135	0.002408062243	1
7	150	0.002418062243	0
7	158	0.002636062243	1
7	178	0.002826095599	3
7	185	0.003372095599	1
7	200	0.003382095599	0
7	208	0.003600095599	1
7	227	0.003670128955	3
7	234	0.004216128955	1
7	249	0.004226128955	0
7	257	0.004444128955	1
7	275	0.004514162311	3
7	282	0.005060162311	1
7	297	0.005070162311	0
7	305	0.005288162311	1
7	322	0.005678195667	3
7	329	0.006224195667	1
7	344	0.006234195667	0
7	352	0.006452195667	1
7	368	0.006882229023	3
7	375	0.007428229023	1
7	390	0.007438229023	0
7	398	0.007656229023	1
8	0	0	1
8	24	0.000250016678	3
8	31	0.000796016678	1
8	90	0.001246033356	3
8	104	0.001792033356	2
8	116	0.001792045565	1
8	124	0.001862045565	0
8	134	0.002408045565	1
8	152	0.002418078921	3
8	159	0.002636078921	1
8	183	0.002826112277	3
8	198	0.003372112277	1
8	202	0.003382112277	3
8	209	0.003600112277	1
8	230	0.003670141164	3
8	243	0.004216141164	1
8	251	0.004226145633	3
8	258	0.004444145633	1
8	276	0.004514162311	3
8	283	0.005060162311	1
8	299	0.005070178989	3
8	306	0.005288178989	1
8	325	0.005678207876	3
8	338	0.006224207876	1
8	346	0.006234212345	3
8	353	0.006452212345	1
8	369	0.006882229023	3
8	376	0.007428229023	1
8	392	0.007438245701	3
8	399	0.007656245701	1
9	0	0	1
9	25	0.000250016678	3
9	32	0.000796016678	1
9	93	0.001246033356	3
9	107	0.001792033356	2
9	114	0.001792045565	1
9	131	0.001862078921	3
9	148	0.002408078921	1
9	153	0.002418078921	3
9	160	0.002636078921	1
9	176	0.002826078921	0
9	184	0.003372078921	1
9	203	0.003382112277	3
9	210	0.003600112277	1
9	228	0.003670128955	3
9	235	0.004216128955	1
9	252	0.004226145633	3
9	259	0.004444145633	1
9	278	0.00451417452	3
9	291	0.00506017452	1
9	300	0.005070178989	3
9	307	0.005288178989	1
9	323	0.005678195667	3
9	330	0.006224195667	1
9	347	0.006234212345	3
9	354	0.006452212345	1
9	371	0.006882241232	3
9	384	0.007428241232	1
9	393	0.007438245701	3
9	400	0.007656245701	1
10	0	0	1
10	26	0.000250016678	3
10	33	0.000796016678	1
10	91	0.001246033356	3
10	105	0.001792033356	2
10	117	0.001792045565	1
10	129	0.001862074452	3
10	144	0.002408074452	1
10	154	0.002418078921	3
10	161	0.002636078921	1
10	179	0.002826095599	3
10	186	0.003372095599	1
10	204	0.003382112277	3
10	211	0.003600112277	1
10	225	0.003670112277	0
10	233	0.004216112277	1
10	253	0.004226145633	3
10	260	0.004444145633	1
10	280	0.004514178989	3
10	295	0.005060178989	1
10	301	0.005070178989	3
10	308	0.005288178989	1
10	326	0.005678207876	3
10	339	0.006224207876	1
10	348	0.006234212345	3
10	355	0.006452212345	1
10	370	0.006882229023	3
10	377	0.007428229023	1
10	394	0.007438245701	3
10	401	0.007656245701	1
11	0	0	1
11	27	0.000250016678	3
11	34	0.000796016678	1
11	85	0.001246016678	0
11	101	0.001792016678	2
11	119	0.001792050034	1
11	127	0.001862062243	3
11	136	0.002408062243	1
11	155	0.002418078921	3
11	162	0.002636078921	1
11	181	0.002826107808	3
11	194	0.003372107808	1
11	205	0.003382112277	3
11	212	0.003600112277	1
11	229	0.003670128955	3
11	236	0.004216128955	1
11	254	0.004226145633	3
11	261	0.004444145633	1
11	279	0.00451417452	3
11	292	0.00506017452	1
11	302	0.005070178989	3
11	309	0.005288178989	1
11	327	0.005678212345	3
11	342	0.006224212345	1
11	349	0.006234212345	3
11	356	0.006452212345	1
11	366	0.006882212345	0
11	374	0.007428212345	1
11	395	0.007438245701	3
11	402	0.007656245701	1
12	0	0	1
12	28	0.000250016678	3
12	35	0.000796016678	1
12	86	0.001246016678	0
12	102	0.001792016678	2
12	118	0.001792050034	1
12	130	0.001862074452	3
12	145	0.002408074452	1
12	156	0.002418078921	3
12	163	0.002636078921	1
12	180	0.002826095599	3
12	187	0.003372095599	1
12	206	0.003382112277	3
12	213	0.003600112277	1
12	231	0.003670141164	3
12	244	0.004216141164	1
12	255	0.004226145633	3
12	262	0.004444145633	1
12	277	0.004514162311	3
12	284	0.005060162311	1
12	303	0.005070178989	3
12	310	0.005288178989	1
12	320	0.005678178989	0
12	328	0.006224178989	1
12	350	0.006234212345	3
12	357	0.006452212345	1
12	373	0.006882245701	3
12	388	0.007428245701	1
12	396	0.007438245701	3
12	403	0.007656245701	1
13	0	0	1
13	29	0.000250016678	3
13	36	0.000796016678	1
13	94	0.001246033356	3
13	108	0.001792033356	2
13	115	0.001792045565	1
13	128	0.001862062243	3
13	137	0.002408062243	1
13	157	0.002418078921	3
13	164	0.002636078921	1
13	182	0.002826107808	3
13	195	0.003372107808	1
13	207	0.003382112277	3
13	214	0.003600112277	1
13	232	0.003670145633	3
13	247	0.004216145633	1
13	256	0.004226145633	3
13	263	0.004444145633	1
13	273	0.004514145633	0
13	281	0.005060145633	1
13	304	0.005070178989	3
13	311	0.005288178989	1
13	324	0.005678195667	3
13	331	0.006224195667	1
13	351	0.006234212345	3
13	358	0.006452212345	1
13	372	0.006882241232	3
13	385	0.007428241232	1
13	397	0.007438245701	3
13	404	0.007656245701	1
14	3	0	12
15	17	0	32
16	17	0	32
17	18	0	59
18	18	0	1
18	18	0	0
19	18	0	59
20	18	0	0
21	20	0	12
21	142	0.002408062243	12
21	192	0.003372095599	12
21	241	0.004216128955	12
21	289	0.005060162311	12
21	336	0.006224195667	12
21	382	0.007428229023	12
22	20	0	1
23	22	0.00025	1
23	23	0.00025	2
23	30	0.000796	1
23	30	0.000796	0
23	150	0.002418062243	1
23	151	0.002418062243	2
23	158	0.002636062243	1
23	158	0.002636062243	0
23	200	0.003382095599	1
23	201	0.003382095599	2
23	208	0.003600095599	1
23	208	0.003600095599	0
23	249	0.004226128955	1
23	250	0.004226128955	2
23	257	0.004444128955	1
23	257	0.004444128955	0
23	297	0.005070162311	1
23	298	0.005070162311	2
23	305	0.005288162311	1
23	305	0.005288162311	0
23	344	0.006234195667	1
23	345	0.006234195667	2
23	352	0.006452195667	1
23	352	0.006452195667	0
23	390	0.007438229023	1
23	391	0.007438229023	2
23	398	0.007656229023	1
23	398	0.007656229023	0
24	49	0.000796016678	12
25	49	0.000796016678	1
26	50	0.000796016678	12
27	50	0.000796016678	1
28	51	0.000796016678	12
29	51	0.000796016678	1
30	52	0.000796016678	12
31	52	0.000796016678	1
32	53	0.000796016678	12
33	53	0.000796016678	1
34	54	0.000796016678	12
35	54	0.000796016678	1
36	61	0.000796016678	12
37	62	0.000796016678	12
38	63	0.000796016678	12
39	64	0.000796016678	12
40	65	0.000796016678	12
41	66	0.000796016678	12
42	73	0.000796016678	59
43	73	0.000796016678	1
43	73	0.000796016678	0
44	73	0.000796016678	59
45	73	0.000796016678	0
46	74	0.000796016678	59
47	74	0.000796016678	1
47	74	0.000796016678	0
48	74	0.000796016678	59
49	74	0.000796016678	0
50	75	0.000796016678	59
51	75	0.000796016678	1
51	75	0.000796016678	0
52	75	0.000796016678	59
53	75	0.000796016678	0
54	76	0.000796016678	59
55	76	0.000796016678	1
55	76	0.000796016678	0
56	76	0.000796016678	59
57	76	0.000796016678	0
58	77	0.000796016678	59
59	77	0.000796016678	1
59	77	0.000796016678	0
60	77	0.000796016678	59
61	77	0.000796016678	0
62	78	0.000796016678	59
63	78	0.000796016678	1
63	78	0.000796016678	0
64	78	0.000796016678	59
65	78	0.000796016678	0
66	85	0.001246016678	1
66	87	0.001246016678	2
66	101	0.001792016678	1
66	101	0.001792016678	0
66	366	0.006882212345	1
66	367	0.006882212345	2
66	374	0.007428212345	1
66	374	0.007428212345	0
67	86	0.001246016678	1
67	88	0.001246016678	2
67	102	0.001792016678	1
67	102	0.001792016678	0
67	320	0.005678178989	1
67	321	0.005678178989	2
67	328	0.006224178989	1
67	328	0.006224178989	0
68	109	0.001792033356	59
69	110	0.001792033356	59
69	199	0.003372112277	59
69	245	0.004216141164	59
69	286	0.005060162311	59
69	340	0.006224207876	59
69	379	0.007428229023	59
70	111	0.001792033356	59
70	146	0.002408074452	59
70	189	0.003372095599	59
70	296	0.005060178989	59
70	341	0.006224207876	59
70	380	0.007428229023	59
71	112	0.001792033356	59
71	149	0.002408078921	59
71	238	0.004216128955	59
71	293	0.00506017452	59
71	333	0.006224195667	59
71	386	0.007428241232	59
72	113	0.001792033356	59
73	124	0.001862045565	1
73	125	0.001862045565	2
73	134	0.002408045565	1
73	134	0.002408045565	0
74	139	0.002408062243	59
74	196	0.003372107808	59
74	239	0.004216128955	59
74	294	0.00506017452	59
74	343	0.006224212345	59
75	140	0.002408062243	59
75	197	0.003372107808	59
75	248	0.004216145633	59
75	334	0.006224195667	59
75	387	0.007428241232	59
76	142	0.002408062243	1
76	192	0.003372095599	2
76	241	0.004216128955	3
76	289	0.005060162311	4
76	336	0.006224195667	5
76	382	0.007428229023	6
77	147	0.002408074452	59
77	190	0.003372095599	59
77	246	0.004216141164	59
77	287	0.005060162311	59
77	389	0.007428245701	59
78	176	0.002826078921	1
78	177	0.002826078921	2
78	184	0.003372078921	1
78	184	0.003372078921	0
79	225	0.003670112277	1
79	226	0.003670112277	2
79	233	0.004216112277	1
79	233	0.004216112277	0
80	273	0.004514145633	1
80	274	0.004514145633	2
80	281	0.005060145633	1
80	281	0.005060145633	0

