version 2
run Wireless01-166-20200710-20:02:34-3279
attr configname Wireless01
attr datetime 20200710-20:02:34
attr experiment Wireless01
attr inifile omnetpp.ini
attr iterationvars $name=Wireless_6_10m
attr iterationvarsf name=Wireless#_6#_10m-
attr measurement $name=Wireless_6_10m
attr network "${name=Wireless_3_1m,Wireless_3_5m, Wireless_3_10m, Wireless_6_1m, Wireless_6_5m, Wireless_6_10m, Wireless_12_1m, Wireless_12_5m, Wireless_12_10m }"
attr processid 3279
attr repetition 16
attr replication #16
attr resultdir results
attr runnumber 166
attr seedset 166
itervar name Wireless_6_10m
param *.hostA.numApps 1
param *.hostA.app[0].typename "\"TDOAApp\""
param *.hostA.app[0].destAddresses "\"Broadcast\""
param *.hostA.app[0].destPort 5000
param *.hostA.app[0].localPort 6000
param *.hostA.app[0].isReceiver false
param *.hostA.app[0].Nome_arquivo "\"Wireless_6_10m.csv\""
param *.host*.numApps 1
param *.host*.app[0].typename "\"TDOAApp\""
param *.host*.app[0].localPort 5000
param *.host*.app[0].destPort 6000
param *.host*.app[0].destAddresses "\"hostA\""
param *.host*.app[0].isReceiver true
param *.host*.wlan[0].typename "\"WirelessInterface\""
param *.radioMedium.typename "\"ApskScalarRadioMedium\""
param *.radioMedium.backgroundNoise.power -90dBm
param *.radioMedium.mediumLimitCache.centerFrequency 2GHz
param *.host*.wlan[0].radio.typename "\"ApskScalarRadio\""
param *.host*.wlan[0].radio.centerFrequency 2GHz
param *.host*.wlan[0].radio.bandwidth 2MHz
param *.host*.wlan[0].radio.transmitter.power 1.4mW
param *.host*.wlan[0].radio.transmitter.preambleDuration 10us
param *.host*.wlan[0].radio.transmitter.headerLength 8B
param *.host*.wlan[0].radio.receiver.sensitivity -85dBm
param *.host*.wlan[0].radio.receiver.energyDetection -85dBm
param *.host*.wlan[0].radio.receiver.snirThreshold 4dB
param *.host*.wlan[0].mac.typename "\"CsmaCaMac\""
param *.host*.wlan[0].mac.ackTimeout 300us
param *.host*.wlan[0].mac.useAck true
param *.host*.wlan[0].mac.fullDuplex false
param *.host*.wlan[0].radio.receiver.ignoreInterference true
param *.host*.wlan[0].mac.headerLength 23B
param *.host*.**.bitrate 1Mbps
param *.host*.ipv4.arp.typename "\"GlobalArp\""
param **.ip.limitedBroadcast true

vector 0 Wireless_6_10m.hostA.wlan[0].radio radioMode:vector ETV
attr interpolationmode sample-hold
attr source radioModeChanged
attr title "Radio mode, vector"
vector 1 Wireless_6_10m.hostB.wlan[0].radio radioMode:vector ETV
attr interpolationmode sample-hold
attr source radioModeChanged
attr title "Radio mode, vector"
vector 2 Wireless_6_10m.hostC.wlan[0].radio radioMode:vector ETV
attr interpolationmode sample-hold
attr source radioModeChanged
attr title "Radio mode, vector"
vector 3 Wireless_6_10m.hostD.wlan[0].radio radioMode:vector ETV
attr interpolationmode sample-hold
attr source radioModeChanged
attr title "Radio mode, vector"
vector 4 Wireless_6_10m.hostE.wlan[0].radio radioMode:vector ETV
attr interpolationmode sample-hold
attr source radioModeChanged
attr title "Radio mode, vector"
vector 5 Wireless_6_10m.hostF.wlan[0].radio radioMode:vector ETV
attr interpolationmode sample-hold
attr source radioModeChanged
attr title "Radio mode, vector"
vector 6 Wireless_6_10m.hostG.wlan[0].radio radioMode:vector ETV
attr interpolationmode sample-hold
attr source radioModeChanged
attr title "Radio mode, vector"
vector 7 Wireless_6_10m.hostA.wlan[0].radio receptionState:vector ETV
attr interpolationmode sample-hold
attr source receptionStateChanged
attr title "Radio reception state, vector"
vector 8 Wireless_6_10m.hostB.wlan[0].radio receptionState:vector ETV
attr interpolationmode sample-hold
attr source receptionStateChanged
attr title "Radio reception state, vector"
vector 9 Wireless_6_10m.hostC.wlan[0].radio receptionState:vector ETV
attr interpolationmode sample-hold
attr source receptionStateChanged
attr title "Radio reception state, vector"
vector 10 Wireless_6_10m.hostD.wlan[0].radio receptionState:vector ETV
attr interpolationmode sample-hold
attr source receptionStateChanged
attr title "Radio reception state, vector"
vector 11 Wireless_6_10m.hostE.wlan[0].radio receptionState:vector ETV
attr interpolationmode sample-hold
attr source receptionStateChanged
attr title "Radio reception state, vector"
vector 12 Wireless_6_10m.hostF.wlan[0].radio receptionState:vector ETV
attr interpolationmode sample-hold
attr source receptionStateChanged
attr title "Radio reception state, vector"
vector 13 Wireless_6_10m.hostG.wlan[0].radio receptionState:vector ETV
attr interpolationmode sample-hold
attr source receptionStateChanged
attr title "Radio reception state, vector"
vector 14 Wireless_6_10m.hostA.udp packetSent:vector(packetBytes) ETV
attr interpolationmode none
attr source packetSent
attr title "packets sent, vector(packetBytes)"
vector 15 Wireless_6_10m.hostA.lo[0].lo rcvdPkFromHl:vector(packetBytes) ETV
attr interpolationmode none
attr source packetReceivedFromUpper
attr title "packets received from higher layer, vector(packetBytes)"
vector 16 Wireless_6_10m.hostA.lo[0].lo passedUpPk:vector(packetBytes) ETV
attr interpolationmode none
attr source packetSentToUpper
attr title "packets passed to higher layer, vector(packetBytes)"
vector 17 Wireless_6_10m.hostA.wlan[0].mac.queue packetPushed:vector(packetBytes) ETV
attr interpolationmode none
attr title "packet pushed, vector(packetBytes)"
vector 18 Wireless_6_10m.hostA.wlan[0].mac.queue queueLength:vector ETV
attr interpolationmode sample-hold
attr source "count(packetPushed) - count(packetPopped) - count(packetRemoved) - count(packetDropped)"
attr title "queue length, vector"
vector 19 Wireless_6_10m.hostA.wlan[0].mac.queue packetPopped:vector(packetBytes) ETV
attr interpolationmode none
attr title "packet popped, vector(packetBytes)"
vector 20 Wireless_6_10m.hostA.wlan[0].mac.queue queueingTime:vector ETV
attr interpolationmode none
attr source queueingTime(packetPopped)
attr title "queueing times, vector"
attr unit s
vector 21 Wireless_6_10m.hostA.udp packetReceived:vector(packetBytes) ETV
attr interpolationmode none
attr source packetReceived
attr title "packets received, vector(packetBytes)"
vector 22 Wireless_6_10m.hostA.udp droppedPkWrongPort:vector(count) ETV
attr interpolationmode none
attr source packetDropReasonIsNoPortFound(packetDropped)
attr title "packets dropped (wrong port), vector(count)"
vector 23 Wireless_6_10m.hostA.wlan[0].radio transmissionState:vector ETV
attr interpolationmode sample-hold
attr source transmissionStateChanged
attr title "Radio transmission state, vector"
vector 24 Wireless_6_10m.hostB.udp packetReceived:vector(packetBytes) ETV
attr interpolationmode none
attr source packetReceived
attr title "packets received, vector(packetBytes)"
vector 25 Wireless_6_10m.hostB.udp passedUpPk:vector(count) ETV
attr interpolationmode none
attr source packetSentToUpper
attr title "packets passed up, vector(count)"
vector 26 Wireless_6_10m.hostC.udp packetReceived:vector(packetBytes) ETV
attr interpolationmode none
attr source packetReceived
attr title "packets received, vector(packetBytes)"
vector 27 Wireless_6_10m.hostC.udp passedUpPk:vector(count) ETV
attr interpolationmode none
attr source packetSentToUpper
attr title "packets passed up, vector(count)"
vector 28 Wireless_6_10m.hostD.udp packetReceived:vector(packetBytes) ETV
attr interpolationmode none
attr source packetReceived
attr title "packets received, vector(packetBytes)"
vector 29 Wireless_6_10m.hostD.udp passedUpPk:vector(count) ETV
attr interpolationmode none
attr source packetSentToUpper
attr title "packets passed up, vector(count)"
vector 30 Wireless_6_10m.hostE.udp packetReceived:vector(packetBytes) ETV
attr interpolationmode none
attr source packetReceived
attr title "packets received, vector(packetBytes)"
vector 31 Wireless_6_10m.hostE.udp passedUpPk:vector(count) ETV
attr interpolationmode none
attr source packetSentToUpper
attr title "packets passed up, vector(count)"
vector 32 Wireless_6_10m.hostF.udp packetReceived:vector(packetBytes) ETV
attr interpolationmode none
attr source packetReceived
attr title "packets received, vector(packetBytes)"
vector 33 Wireless_6_10m.hostF.udp passedUpPk:vector(count) ETV
attr interpolationmode none
attr source packetSentToUpper
attr title "packets passed up, vector(count)"
vector 34 Wireless_6_10m.hostG.udp packetReceived:vector(packetBytes) ETV
attr interpolationmode none
attr source packetReceived
attr title "packets received, vector(packetBytes)"
vector 35 Wireless_6_10m.hostG.udp passedUpPk:vector(count) ETV
attr interpolationmode none
attr source packetSentToUpper
attr title "packets passed up, vector(count)"
vector 36 Wireless_6_10m.hostB.udp packetSent:vector(packetBytes) ETV
attr interpolationmode none
attr source packetSent
attr title "packets sent, vector(packetBytes)"
vector 37 Wireless_6_10m.hostC.udp packetSent:vector(packetBytes) ETV
attr interpolationmode none
attr source packetSent
attr title "packets sent, vector(packetBytes)"
vector 38 Wireless_6_10m.hostD.udp packetSent:vector(packetBytes) ETV
attr interpolationmode none
attr source packetSent
attr title "packets sent, vector(packetBytes)"
vector 39 Wireless_6_10m.hostE.udp packetSent:vector(packetBytes) ETV
attr interpolationmode none
attr source packetSent
attr title "packets sent, vector(packetBytes)"
vector 40 Wireless_6_10m.hostF.udp packetSent:vector(packetBytes) ETV
attr interpolationmode none
attr source packetSent
attr title "packets sent, vector(packetBytes)"
vector 41 Wireless_6_10m.hostG.udp packetSent:vector(packetBytes) ETV
attr interpolationmode none
attr source packetSent
attr title "packets sent, vector(packetBytes)"
vector 42 Wireless_6_10m.hostB.wlan[0].mac.queue packetPushed:vector(packetBytes) ETV
attr interpolationmode none
attr title "packet pushed, vector(packetBytes)"
vector 43 Wireless_6_10m.hostB.wlan[0].mac.queue queueLength:vector ETV
attr interpolationmode sample-hold
attr source "count(packetPushed) - count(packetPopped) - count(packetRemoved) - count(packetDropped)"
attr title "queue length, vector"
vector 44 Wireless_6_10m.hostB.wlan[0].mac.queue packetPopped:vector(packetBytes) ETV
attr interpolationmode none
attr title "packet popped, vector(packetBytes)"
vector 45 Wireless_6_10m.hostB.wlan[0].mac.queue queueingTime:vector ETV
attr interpolationmode none
attr source queueingTime(packetPopped)
attr title "queueing times, vector"
attr unit s
vector 46 Wireless_6_10m.hostC.wlan[0].mac.queue packetPushed:vector(packetBytes) ETV
attr interpolationmode none
attr title "packet pushed, vector(packetBytes)"
vector 47 Wireless_6_10m.hostC.wlan[0].mac.queue queueLength:vector ETV
attr interpolationmode sample-hold
attr source "count(packetPushed) - count(packetPopped) - count(packetRemoved) - count(packetDropped)"
attr title "queue length, vector"
vector 48 Wireless_6_10m.hostC.wlan[0].mac.queue packetPopped:vector(packetBytes) ETV
attr interpolationmode none
attr title "packet popped, vector(packetBytes)"
vector 49 Wireless_6_10m.hostC.wlan[0].mac.queue queueingTime:vector ETV
attr interpolationmode none
attr source queueingTime(packetPopped)
attr title "queueing times, vector"
attr unit s
vector 50 Wireless_6_10m.hostD.wlan[0].mac.queue packetPushed:vector(packetBytes) ETV
attr interpolationmode none
attr title "packet pushed, vector(packetBytes)"
vector 51 Wireless_6_10m.hostD.wlan[0].mac.queue queueLength:vector ETV
attr interpolationmode sample-hold
attr source "count(packetPushed) - count(packetPopped) - count(packetRemoved) - count(packetDropped)"
attr title "queue length, vector"
vector 52 Wireless_6_10m.hostD.wlan[0].mac.queue packetPopped:vector(packetBytes) ETV
attr interpolationmode none
attr title "packet popped, vector(packetBytes)"
vector 53 Wireless_6_10m.hostD.wlan[0].mac.queue queueingTime:vector ETV
attr interpolationmode none
attr source queueingTime(packetPopped)
attr title "queueing times, vector"
attr unit s
vector 54 Wireless_6_10m.hostE.wlan[0].mac.queue packetPushed:vector(packetBytes) ETV
attr interpolationmode none
attr title "packet pushed, vector(packetBytes)"
vector 55 Wireless_6_10m.hostE.wlan[0].mac.queue queueLength:vector ETV
attr interpolationmode sample-hold
attr source "count(packetPushed) - count(packetPopped) - count(packetRemoved) - count(packetDropped)"
attr title "queue length, vector"
vector 56 Wireless_6_10m.hostE.wlan[0].mac.queue packetPopped:vector(packetBytes) ETV
attr interpolationmode none
attr title "packet popped, vector(packetBytes)"
vector 57 Wireless_6_10m.hostE.wlan[0].mac.queue queueingTime:vector ETV
attr interpolationmode none
attr source queueingTime(packetPopped)
attr title "queueing times, vector"
attr unit s
vector 58 Wireless_6_10m.hostF.wlan[0].mac.queue packetPushed:vector(packetBytes) ETV
attr interpolationmode none
attr title "packet pushed, vector(packetBytes)"
vector 59 Wireless_6_10m.hostF.wlan[0].mac.queue queueLength:vector ETV
attr interpolationmode sample-hold
attr source "count(packetPushed) - count(packetPopped) - count(packetRemoved) - count(packetDropped)"
attr title "queue length, vector"
vector 60 Wireless_6_10m.hostF.wlan[0].mac.queue packetPopped:vector(packetBytes) ETV
attr interpolationmode none
attr title "packet popped, vector(packetBytes)"
vector 61 Wireless_6_10m.hostF.wlan[0].mac.queue queueingTime:vector ETV
attr interpolationmode none
attr source queueingTime(packetPopped)
attr title "queueing times, vector"
attr unit s
vector 62 Wireless_6_10m.hostG.wlan[0].mac.queue packetPushed:vector(packetBytes) ETV
attr interpolationmode none
attr title "packet pushed, vector(packetBytes)"
vector 63 Wireless_6_10m.hostG.wlan[0].mac.queue queueLength:vector ETV
attr interpolationmode sample-hold
attr source "count(packetPushed) - count(packetPopped) - count(packetRemoved) - count(packetDropped)"
attr title "queue length, vector"
vector 64 Wireless_6_10m.hostG.wlan[0].mac.queue packetPopped:vector(packetBytes) ETV
attr interpolationmode none
attr title "packet popped, vector(packetBytes)"
vector 65 Wireless_6_10m.hostG.wlan[0].mac.queue queueingTime:vector ETV
attr interpolationmode none
attr source queueingTime(packetPopped)
attr title "queueing times, vector"
attr unit s
vector 66 Wireless_6_10m.hostD.wlan[0].radio transmissionState:vector ETV
attr interpolationmode sample-hold
attr source transmissionStateChanged
attr title "Radio transmission state, vector"
vector 67 Wireless_6_10m.hostC.wlan[0].mac packetDropNotAddressedToUs:vector(packetBytes) ETV
attr interpolationmode none
attr source packetDropReasonIsNotAddressedToUs(packetDropped)
attr title "packet drop: not addressed to us, vector(packetBytes)"
vector 68 Wireless_6_10m.hostE.wlan[0].mac packetDropNotAddressedToUs:vector(packetBytes) ETV
attr interpolationmode none
attr source packetDropReasonIsNotAddressedToUs(packetDropped)
attr title "packet drop: not addressed to us, vector(packetBytes)"
vector 69 Wireless_6_10m.hostA.udp passedUpPk:vector(count) ETV
attr interpolationmode none
attr source packetSentToUpper
attr title "packets passed up, vector(count)"
vector 70 Wireless_6_10m.hostB.wlan[0].mac packetDropNotAddressedToUs:vector(packetBytes) ETV
attr interpolationmode none
attr source packetDropReasonIsNotAddressedToUs(packetDropped)
attr title "packet drop: not addressed to us, vector(packetBytes)"
vector 71 Wireless_6_10m.hostF.wlan[0].mac packetDropNotAddressedToUs:vector(packetBytes) ETV
attr interpolationmode none
attr source packetDropReasonIsNotAddressedToUs(packetDropped)
attr title "packet drop: not addressed to us, vector(packetBytes)"
vector 72 Wireless_6_10m.hostG.wlan[0].mac packetDropNotAddressedToUs:vector(packetBytes) ETV
attr interpolationmode none
attr source packetDropReasonIsNotAddressedToUs(packetDropped)
attr title "packet drop: not addressed to us, vector(packetBytes)"
vector 73 Wireless_6_10m.hostF.wlan[0].radio transmissionState:vector ETV
attr interpolationmode sample-hold
attr source transmissionStateChanged
attr title "Radio transmission state, vector"
vector 74 Wireless_6_10m.hostG.wlan[0].radio transmissionState:vector ETV
attr interpolationmode sample-hold
attr source transmissionStateChanged
attr title "Radio transmission state, vector"
vector 75 Wireless_6_10m.hostA.wlan[0].mac packetDropIncorrectlyReceived:vector(packetBytes) ETV
attr interpolationmode none
attr source packetDropReasonIsIncorrectlyReceived(packetDropped)
attr title "packet drop: incorrectly received, vector(packetBytes)"
vector 76 Wireless_6_10m.hostD.wlan[0].mac packetDropIncorrectlyReceived:vector(packetBytes) ETV
attr interpolationmode none
attr source packetDropReasonIsIncorrectlyReceived(packetDropped)
attr title "packet drop: incorrectly received, vector(packetBytes)"
vector 77 Wireless_6_10m.hostE.wlan[0].mac packetDropIncorrectlyReceived:vector(packetBytes) ETV
attr interpolationmode none
attr source packetDropReasonIsIncorrectlyReceived(packetDropped)
attr title "packet drop: incorrectly received, vector(packetBytes)"
vector 78 Wireless_6_10m.hostE.wlan[0].radio transmissionState:vector ETV
attr interpolationmode sample-hold
attr source transmissionStateChanged
attr title "Radio transmission state, vector"
vector 79 Wireless_6_10m.hostD.wlan[0].mac packetDropNotAddressedToUs:vector(packetBytes) ETV
attr interpolationmode none
attr source packetDropReasonIsNotAddressedToUs(packetDropped)
attr title "packet drop: not addressed to us, vector(packetBytes)"
vector 80 Wireless_6_10m.hostB.wlan[0].radio transmissionState:vector ETV
attr interpolationmode sample-hold
attr source transmissionStateChanged
attr title "Radio transmission state, vector"
vector 81 Wireless_6_10m.hostC.wlan[0].radio transmissionState:vector ETV
attr interpolationmode sample-hold
attr source transmissionStateChanged
attr title "Radio transmission state, vector"
0	0	0	0
0	0	0	0
0	0	0	2
0	22	0.00035	3
0	30	0.000896	2
0	109	0.001502066712	3
0	117	0.001720066712	2
0	199	0.003262200137	3
0	207	0.003480200137	2
0	287	0.004902324624	3
0	295	0.005120324624	2
0	335	0.006166391336	3
0	343	0.006384391336	2
0	382	0.007070458048	3
0	390	0.007288458048	2
0	428	0.00837452476	3
0	436	0.00859252476	2
1	0	0	0
1	0	0	0
1	0	0	2
1	224	0.003650233493	3
1	240	0.004196233493	2
1	404	0.007818491404	3
1	412	0.008364491404	2
2	0	0	0
2	0	0	0
2	0	0	2
2	225	0.003650233493	3
2	241	0.004196233493	2
2	311	0.00561035798	3
2	319	0.00615635798	2
3	0	0	0
3	0	0	0
3	0	0	2
3	85	0.000946033356	3
3	93	0.001492033356	2
4	0	0	0
4	0	0	0
4	0	0	2
4	173	0.002706166781	3
4	183	0.003252166781	2
5	0	0	0
5	0	0	0
5	0	0	2
5	135	0.001950100068	3
5	151	0.002496100068	2
5	358	0.006514424692	3
5	366	0.007060424692	2
6	0	0	0
6	0	0	0
6	0	0	2
6	136	0.001950100068	3
6	152	0.002496100068	2
6	261	0.004346291268	3
6	271	0.004892291268	2
7	0	0	1
7	22	0.00035	0
7	30	0.000896	1
7	87	0.000946066712	3
7	94	0.001492066712	1
7	109	0.001502066712	0
7	117	0.001720066712	1
7	139	0.001950133424	3
7	153	0.002496133424	1
7	175	0.002706200137	3
7	184	0.003252200137	1
7	199	0.003262200137	0
7	207	0.003480200137	1
7	228	0.003650266849	3
7	242	0.004196266849	1
7	263	0.004346324624	3
7	272	0.004892324624	1
7	287	0.004902324624	0
7	295	0.005120324624	1
7	313	0.005610391336	3
7	320	0.006156391336	1
7	335	0.006166391336	0
7	343	0.006384391336	1
7	360	0.006514458048	3
7	367	0.007060458048	1
7	382	0.007070458048	0
7	390	0.007288458048	1
7	406	0.00781852476	3
7	413	0.00836452476	1
7	428	0.00837452476	0
7	436	0.00859252476	1
8	0	0	1
8	24	0.000350033356	3
8	31	0.000896033356	1
8	90	0.000946091131	3
8	103	0.001492091131	1
8	111	0.001502100068	3
8	118	0.001720100068	1
8	143	0.001950133424	3
8	157	0.002496133424	2
8	162	0.002496157843	1
8	176	0.002706200137	3
8	185	0.003252200137	1
8	201	0.003262233493	3
8	208	0.003480233493	1
8	224	0.003650233493	0
8	240	0.004196233493	2
8	258	0.004196300206	1
8	264	0.004346324624	3
8	273	0.004892324624	1
8	289	0.00490235798	3
8	296	0.00512035798	1
8	318	0.005610424693	3
8	333	0.006156424693	1
8	337	0.006166424692	3
8	344	0.006384424692	1
8	363	0.006514482467	3
8	376	0.007060482467	1
8	384	0.007070491404	3
8	391	0.007288491404	1
8	404	0.007818491404	0
8	412	0.008364491404	1
8	430	0.008374558116	3
8	437	0.008592558116	1
9	0	0	1
9	25	0.000350033356	3
9	32	0.000896033356	1
9	88	0.000946066712	3
9	95	0.001492066712	1
9	112	0.001502100068	3
9	119	0.001720100068	1
9	140	0.001950133424	3
9	154	0.002496133424	2
9	164	0.002496157843	1
9	178	0.002706224556	3
9	193	0.003252224556	1
9	202	0.003262233493	3
9	209	0.003480233493	1
9	225	0.003650233493	0
9	241	0.004196233493	2
9	257	0.004196300206	1
9	266	0.004346349043	3
9	281	0.004892349043	1
9	290	0.00490235798	3
9	297	0.00512035798	1
9	311	0.00561035798	0
9	319	0.00615635798	1
9	338	0.006166424692	3
9	345	0.006384424692	1
9	361	0.006514458048	3
9	368	0.007060458048	1
9	385	0.007070491404	3
9	392	0.007288491404	1
9	411	0.007818558117	3
9	426	0.008364558117	1
9	431	0.008374558116	3
9	438	0.008592558116	1
10	0	0	1
10	26	0.000350033356	3
10	33	0.000896033356	1
10	85	0.000946033356	0
10	93	0.001492033356	1
10	113	0.001502100068	3
10	120	0.001720100068	1
10	146	0.001950157843	3
10	163	0.002496157843	2
10	169	0.002496166781	1
10	177	0.002706200137	3
10	186	0.003252200137	1
10	203	0.003262233493	3
10	210	0.003480233493	1
10	232	0.003650266849	3
10	246	0.004196266849	2
10	253	0.004196291268	1
10	268	0.004346357981	3
10	285	0.004892357981	1
10	291	0.00490235798	3
10	298	0.00512035798	1
10	314	0.005610391336	3
10	321	0.006156391336	1
10	339	0.006166424692	3
10	346	0.006384424692	1
10	364	0.006514482467	3
10	377	0.007060482467	1
10	386	0.007070491404	3
10	393	0.007288491404	1
10	409	0.007818549179	3
10	422	0.008364549179	1
10	432	0.008374558116	3
10	439	0.008592558116	1
11	0	0	1
11	27	0.000350033356	3
11	34	0.000896033356	1
11	89	0.000946066712	3
11	96	0.001492066712	1
11	114	0.001502100068	3
11	121	0.001720100068	1
11	148	0.001950157843	3
11	165	0.002496157843	2
11	168	0.002496166781	1
11	173	0.002706166781	0
11	183	0.003252166781	1
11	204	0.003262233493	3
11	211	0.003480233493	1
11	229	0.003650266849	3
11	243	0.004196266849	2
11	255	0.004196291268	1
11	267	0.004346349043	3
11	282	0.004892349043	1
11	292	0.00490235798	3
11	299	0.00512035798	1
11	316	0.005610415755	3
11	329	0.006156415755	1
11	340	0.006166424692	3
11	347	0.006384424692	1
11	365	0.006514491405	3
11	380	0.007060491405	1
11	387	0.007070491404	3
11	394	0.007288491404	1
11	407	0.00781852476	3
11	414	0.00836452476	1
11	433	0.008374558116	3
11	440	0.008592558116	1
12	0	0	1
12	28	0.000350033356	3
12	35	0.000896033356	1
12	91	0.000946091131	3
12	104	0.001492091131	1
12	115	0.001502100068	3
12	122	0.001720100068	1
12	135	0.001950100068	0
12	151	0.002496100068	2
12	158	0.002496133424	1
12	180	0.002706233494	3
12	197	0.003252233494	1
12	205	0.003262233493	3
12	212	0.003480233493	1
12	233	0.003650266849	3
12	247	0.004196266849	2
12	254	0.004196291268	1
12	265	0.004346324624	3
12	274	0.004892324624	1
12	293	0.00490235798	3
12	300	0.00512035798	1
12	315	0.005610391336	3
12	322	0.006156391336	1
12	341	0.006166424692	3
12	348	0.006384424692	1
12	358	0.006514424692	0
12	366	0.007060424692	1
12	388	0.007070491404	3
12	395	0.007288491404	1
12	410	0.007818549179	3
12	423	0.008364549179	1
12	434	0.008374558116	3
12	441	0.008592558116	1
13	0	0	1
13	29	0.000350033356	3
13	36	0.000896033356	1
13	92	0.000946100069	3
13	107	0.001492100069	1
13	116	0.001502100068	3
13	123	0.001720100068	1
13	136	0.001950100068	0
13	152	0.002496100068	2
13	155	0.002496133424	1
13	179	0.002706224556	3
13	194	0.003252224556	1
13	206	0.003262233493	3
13	213	0.003480233493	1
13	230	0.003650266849	3
13	244	0.004196266849	2
13	256	0.004196291268	1
13	261	0.004346291268	0
13	271	0.004892291268	1
13	294	0.00490235798	3
13	301	0.00512035798	1
13	317	0.005610415755	3
13	330	0.006156415755	1
13	342	0.006166424692	3
13	349	0.006384424692	1
13	362	0.006514458048	3
13	369	0.007060458048	1
13	389	0.007070491404	3
13	396	0.007288491404	1
13	408	0.00781852476	3
13	415	0.00836452476	1
13	435	0.008374558116	3
13	442	0.008592558116	1
14	3	0	12
15	17	0	32
16	17	0	32
17	18	0	59
18	18	0	1
18	18	0	0
19	18	0	59
20	18	0	0
21	20	0	12
21	101	0.001492066712	12
21	191	0.003252200137	12
21	279	0.004892324624	12
21	327	0.006156391336	12
21	374	0.007060458048	12
21	420	0.00836452476	12
22	20	0	1
23	22	0.00035	1
23	23	0.00035	2
23	30	0.000896	1
23	30	0.000896	0
23	109	0.001502066712	1
23	110	0.001502066712	2
23	117	0.001720066712	1
23	117	0.001720066712	0
23	199	0.003262200137	1
23	200	0.003262200137	2
23	207	0.003480200137	1
23	207	0.003480200137	0
23	287	0.004902324624	1
23	288	0.004902324624	2
23	295	0.005120324624	1
23	295	0.005120324624	0
23	335	0.006166391336	1
23	336	0.006166391336	2
23	343	0.006384391336	1
23	343	0.006384391336	0
23	382	0.007070458048	1
23	383	0.007070458048	2
23	390	0.007288458048	1
23	390	0.007288458048	0
23	428	0.00837452476	1
23	429	0.00837452476	2
23	436	0.00859252476	1
23	436	0.00859252476	0
24	49	0.000896033356	12
25	49	0.000896033356	1
26	50	0.000896033356	12
27	50	0.000896033356	1
28	51	0.000896033356	12
29	51	0.000896033356	1
30	52	0.000896033356	12
31	52	0.000896033356	1
32	53	0.000896033356	12
33	53	0.000896033356	1
34	54	0.000896033356	12
35	54	0.000896033356	1
36	61	0.000896033356	12
37	62	0.000896033356	12
38	63	0.000896033356	12
39	64	0.000896033356	12
40	65	0.000896033356	12
41	66	0.000896033356	12
42	73	0.000896033356	59
43	73	0.000896033356	1
43	73	0.000896033356	0
44	73	0.000896033356	59
45	73	0.000896033356	0
46	74	0.000896033356	59
47	74	0.000896033356	1
47	74	0.000896033356	0
48	74	0.000896033356	59
49	74	0.000896033356	0
50	75	0.000896033356	59
51	75	0.000896033356	1
51	75	0.000896033356	0
52	75	0.000896033356	59
53	75	0.000896033356	0
54	76	0.000896033356	59
55	76	0.000896033356	1
55	76	0.000896033356	0
56	76	0.000896033356	59
57	76	0.000896033356	0
58	77	0.000896033356	59
59	77	0.000896033356	1
59	77	0.000896033356	0
60	77	0.000896033356	59
61	77	0.000896033356	0
62	78	0.000896033356	59
63	78	0.000896033356	1
63	78	0.000896033356	0
64	78	0.000896033356	59
65	78	0.000896033356	0
66	85	0.000946033356	1
66	86	0.000946033356	2
66	93	0.001492033356	1
66	93	0.001492033356	0
67	98	0.001492066712	59
67	160	0.002496133424	59
67	195	0.003252224556	59
67	283	0.004892349043	59
67	371	0.007060458048	59
67	427	0.008364558117	59
68	99	0.001492066712	59
68	249	0.004196266849	59
68	284	0.004892349043	59
68	331	0.006156415755	59
68	381	0.007060491405	59
68	417	0.00836452476	59
69	101	0.001492066712	1
69	191	0.003252200137	2
69	279	0.004892324624	3
69	327	0.006156391336	4
69	374	0.007060458048	5
69	420	0.00836452476	6
70	105	0.001492091131	59
70	161	0.002496133424	59
70	188	0.003252200137	59
70	276	0.004892324624	59
70	334	0.006156424693	59
70	378	0.007060482467	59
71	106	0.001492091131	59
71	198	0.003252233494	59
71	252	0.004196266849	59
71	277	0.004892324624	59
71	325	0.006156391336	59
71	425	0.008364549179	59
72	108	0.001492100069	59
72	196	0.003252224556	59
72	250	0.004196266849	59
72	332	0.006156415755	59
72	372	0.007060458048	59
72	418	0.00836452476	59
73	135	0.001950100068	1
73	137	0.001950100068	2
73	151	0.002496100068	1
73	151	0.002496100068	0
73	358	0.006514424692	1
73	359	0.006514424692	2
73	366	0.007060424692	1
73	366	0.007060424692	0
74	136	0.001950100068	1
74	138	0.001950100068	2
74	152	0.002496100068	1
74	152	0.002496100068	0
74	261	0.004346291268	1
74	262	0.004346291268	2
74	271	0.004892291268	1
74	271	0.004892291268	0
75	159	0.002496133424	59
75	248	0.004196266849	59
76	166	0.002496157843	59
77	167	0.002496157843	59
78	173	0.002706166781	1
78	174	0.002706166781	2
78	183	0.003252166781	1
78	183	0.003252166781	0
79	189	0.003252200137	59
79	251	0.004196266849	59
79	286	0.004892357981	59
79	324	0.006156391336	59
79	379	0.007060482467	59
79	424	0.008364549179	59
80	224	0.003650233493	1
80	226	0.003650233493	2
80	240	0.004196233493	1
80	240	0.004196233493	0
80	404	0.007818491404	1
80	405	0.007818491404	2
80	412	0.008364491404	1
80	412	0.008364491404	0
81	225	0.003650233493	1
81	227	0.003650233493	2
81	241	0.004196233493	1
81	241	0.004196233493	0
81	311	0.00561035798	1
81	312	0.00561035798	2
81	319	0.00615635798	1
81	319	0.00615635798	0

