version 2
run Wireless01-47-20200703-11:26:58-4377
attr configname Wireless01
attr datetime 20200703-11:26:58
attr experiment Wireless01
attr inifile omnetpp.ini
attr iterationvars $name=Wireless_6_5m
attr iterationvarsf name=Wireless#_6#_5m-
attr measurement $name=Wireless_6_5m
attr network "${name=Wireless_3_1m,Wireless_3_5m, Wireless_3_10m, Wireless_6_1m, Wireless_6_5m, Wireless_6_10m, Wireless_12_1m, Wireless_12_5m, Wireless_12_10m }"
attr processid 4377
attr repetition 7
attr replication #7
attr resultdir results
attr runnumber 47
attr seedset 47
itervar name Wireless_6_5m
param *.hostA.numApps 1
param *.hostA.app[0].typename "\"TDOAApp\""
param *.hostA.app[0].destAddresses "\"Broadcast\""
param *.hostA.app[0].destPort 5000
param *.hostA.app[0].localPort 6000
param *.hostA.app[0].isReceiver false
param *.hostA.app[0].Nome_arquivo "\"Wireless_6_5m.csv\""
param *.host*.numApps 1
param *.host*.app[0].typename "\"TDOAApp\""
param *.host*.app[0].localPort 5000
param *.host*.app[0].destPort 6000
param *.host*.app[0].destAddresses "\"hostA\""
param *.host*.app[0].isReceiver true
param *.host*.wlan[0].typename "\"WirelessInterface\""
param *.radioMedium.typename "\"ApskScalarRadioMedium\""
param *.radioMedium.backgroundNoise.power -90dBm
param *.radioMedium.mediumLimitCache.centerFrequency 2GHz
param *.host*.wlan[0].radio.typename "\"ApskScalarRadio\""
param *.host*.wlan[0].radio.centerFrequency 2GHz
param *.host*.wlan[0].radio.bandwidth 2MHz
param *.host*.wlan[0].radio.transmitter.power 1.4mW
param *.host*.wlan[0].radio.transmitter.preambleDuration 10us
param *.host*.wlan[0].radio.transmitter.headerLength 8B
param *.host*.wlan[0].radio.receiver.sensitivity -85dBm
param *.host*.wlan[0].radio.receiver.energyDetection -85dBm
param *.host*.wlan[0].radio.receiver.snirThreshold 4dB
param *.host*.wlan[0].mac.typename "\"CsmaCaMac\""
param *.host*.wlan[0].mac.ackTimeout 300us
param *.host*.wlan[0].mac.useAck true
param *.host*.wlan[0].mac.fullDuplex false
param *.host*.wlan[0].radio.receiver.ignoreInterference true
param *.host*.wlan[0].mac.headerLength 23B
param *.host*.**.bitrate 1Mbps
param *.host*.ipv4.arp.typename "\"GlobalArp\""
param **.ip.limitedBroadcast true

vector 0 Wireless_6_5m.hostA.wlan[0].radio radioMode:vector ETV
attr interpolationmode sample-hold
attr source radioModeChanged
attr title "Radio mode, vector"
vector 1 Wireless_6_5m.hostB.wlan[0].radio radioMode:vector ETV
attr interpolationmode sample-hold
attr source radioModeChanged
attr title "Radio mode, vector"
vector 2 Wireless_6_5m.hostC.wlan[0].radio radioMode:vector ETV
attr interpolationmode sample-hold
attr source radioModeChanged
attr title "Radio mode, vector"
vector 3 Wireless_6_5m.hostD.wlan[0].radio radioMode:vector ETV
attr interpolationmode sample-hold
attr source radioModeChanged
attr title "Radio mode, vector"
vector 4 Wireless_6_5m.hostE.wlan[0].radio radioMode:vector ETV
attr interpolationmode sample-hold
attr source radioModeChanged
attr title "Radio mode, vector"
vector 5 Wireless_6_5m.hostF.wlan[0].radio radioMode:vector ETV
attr interpolationmode sample-hold
attr source radioModeChanged
attr title "Radio mode, vector"
vector 6 Wireless_6_5m.hostG.wlan[0].radio radioMode:vector ETV
attr interpolationmode sample-hold
attr source radioModeChanged
attr title "Radio mode, vector"
vector 7 Wireless_6_5m.hostA.wlan[0].radio receptionState:vector ETV
attr interpolationmode sample-hold
attr source receptionStateChanged
attr title "Radio reception state, vector"
vector 8 Wireless_6_5m.hostB.wlan[0].radio receptionState:vector ETV
attr interpolationmode sample-hold
attr source receptionStateChanged
attr title "Radio reception state, vector"
vector 9 Wireless_6_5m.hostC.wlan[0].radio receptionState:vector ETV
attr interpolationmode sample-hold
attr source receptionStateChanged
attr title "Radio reception state, vector"
vector 10 Wireless_6_5m.hostD.wlan[0].radio receptionState:vector ETV
attr interpolationmode sample-hold
attr source receptionStateChanged
attr title "Radio reception state, vector"
vector 11 Wireless_6_5m.hostE.wlan[0].radio receptionState:vector ETV
attr interpolationmode sample-hold
attr source receptionStateChanged
attr title "Radio reception state, vector"
vector 12 Wireless_6_5m.hostF.wlan[0].radio receptionState:vector ETV
attr interpolationmode sample-hold
attr source receptionStateChanged
attr title "Radio reception state, vector"
vector 13 Wireless_6_5m.hostG.wlan[0].radio receptionState:vector ETV
attr interpolationmode sample-hold
attr source receptionStateChanged
attr title "Radio reception state, vector"
vector 14 Wireless_6_5m.hostA.udp packetSent:vector(packetBytes) ETV
attr interpolationmode none
attr source packetSent
attr title "packets sent, vector(packetBytes)"
vector 15 Wireless_6_5m.hostA.lo[0].lo rcvdPkFromHl:vector(packetBytes) ETV
attr interpolationmode none
attr source packetReceivedFromUpper
attr title "packets received from higher layer, vector(packetBytes)"
vector 16 Wireless_6_5m.hostA.lo[0].lo passedUpPk:vector(packetBytes) ETV
attr interpolationmode none
attr source packetSentToUpper
attr title "packets passed to higher layer, vector(packetBytes)"
vector 17 Wireless_6_5m.hostA.wlan[0].mac.queue packetPushed:vector(packetBytes) ETV
attr interpolationmode none
attr title "packet pushed, vector(packetBytes)"
vector 18 Wireless_6_5m.hostA.wlan[0].mac.queue queueLength:vector ETV
attr interpolationmode sample-hold
attr source "count(packetPushed) - count(packetPopped) - count(packetRemoved) - count(packetDropped)"
attr title "queue length, vector"
vector 19 Wireless_6_5m.hostA.wlan[0].mac.queue packetPopped:vector(packetBytes) ETV
attr interpolationmode none
attr title "packet popped, vector(packetBytes)"
vector 20 Wireless_6_5m.hostA.wlan[0].mac.queue queueingTime:vector ETV
attr interpolationmode none
attr source queueingTime(packetPopped)
attr title "queueing times, vector"
attr unit s
vector 21 Wireless_6_5m.hostA.udp packetReceived:vector(packetBytes) ETV
attr interpolationmode none
attr source packetReceived
attr title "packets received, vector(packetBytes)"
vector 22 Wireless_6_5m.hostA.udp droppedPkWrongPort:vector(count) ETV
attr interpolationmode none
attr source packetDropReasonIsNoPortFound(packetDropped)
attr title "packets dropped (wrong port), vector(count)"
vector 23 Wireless_6_5m.hostA.wlan[0].radio transmissionState:vector ETV
attr interpolationmode sample-hold
attr source transmissionStateChanged
attr title "Radio transmission state, vector"
vector 24 Wireless_6_5m.hostB.udp packetReceived:vector(packetBytes) ETV
attr interpolationmode none
attr source packetReceived
attr title "packets received, vector(packetBytes)"
vector 25 Wireless_6_5m.hostB.udp passedUpPk:vector(count) ETV
attr interpolationmode none
attr source packetSentToUpper
attr title "packets passed up, vector(count)"
vector 26 Wireless_6_5m.hostC.udp packetReceived:vector(packetBytes) ETV
attr interpolationmode none
attr source packetReceived
attr title "packets received, vector(packetBytes)"
vector 27 Wireless_6_5m.hostC.udp passedUpPk:vector(count) ETV
attr interpolationmode none
attr source packetSentToUpper
attr title "packets passed up, vector(count)"
vector 28 Wireless_6_5m.hostD.udp packetReceived:vector(packetBytes) ETV
attr interpolationmode none
attr source packetReceived
attr title "packets received, vector(packetBytes)"
vector 29 Wireless_6_5m.hostD.udp passedUpPk:vector(count) ETV
attr interpolationmode none
attr source packetSentToUpper
attr title "packets passed up, vector(count)"
vector 30 Wireless_6_5m.hostE.udp packetReceived:vector(packetBytes) ETV
attr interpolationmode none
attr source packetReceived
attr title "packets received, vector(packetBytes)"
vector 31 Wireless_6_5m.hostE.udp passedUpPk:vector(count) ETV
attr interpolationmode none
attr source packetSentToUpper
attr title "packets passed up, vector(count)"
vector 32 Wireless_6_5m.hostF.udp packetReceived:vector(packetBytes) ETV
attr interpolationmode none
attr source packetReceived
attr title "packets received, vector(packetBytes)"
vector 33 Wireless_6_5m.hostF.udp passedUpPk:vector(count) ETV
attr interpolationmode none
attr source packetSentToUpper
attr title "packets passed up, vector(count)"
vector 34 Wireless_6_5m.hostG.udp packetReceived:vector(packetBytes) ETV
attr interpolationmode none
attr source packetReceived
attr title "packets received, vector(packetBytes)"
vector 35 Wireless_6_5m.hostG.udp passedUpPk:vector(count) ETV
attr interpolationmode none
attr source packetSentToUpper
attr title "packets passed up, vector(count)"
vector 36 Wireless_6_5m.hostB.udp packetSent:vector(packetBytes) ETV
attr interpolationmode none
attr source packetSent
attr title "packets sent, vector(packetBytes)"
vector 37 Wireless_6_5m.hostC.udp packetSent:vector(packetBytes) ETV
attr interpolationmode none
attr source packetSent
attr title "packets sent, vector(packetBytes)"
vector 38 Wireless_6_5m.hostD.udp packetSent:vector(packetBytes) ETV
attr interpolationmode none
attr source packetSent
attr title "packets sent, vector(packetBytes)"
vector 39 Wireless_6_5m.hostE.udp packetSent:vector(packetBytes) ETV
attr interpolationmode none
attr source packetSent
attr title "packets sent, vector(packetBytes)"
vector 40 Wireless_6_5m.hostF.udp packetSent:vector(packetBytes) ETV
attr interpolationmode none
attr source packetSent
attr title "packets sent, vector(packetBytes)"
vector 41 Wireless_6_5m.hostG.udp packetSent:vector(packetBytes) ETV
attr interpolationmode none
attr source packetSent
attr title "packets sent, vector(packetBytes)"
vector 42 Wireless_6_5m.hostB.wlan[0].mac.queue packetPushed:vector(packetBytes) ETV
attr interpolationmode none
attr title "packet pushed, vector(packetBytes)"
vector 43 Wireless_6_5m.hostB.wlan[0].mac.queue queueLength:vector ETV
attr interpolationmode sample-hold
attr source "count(packetPushed) - count(packetPopped) - count(packetRemoved) - count(packetDropped)"
attr title "queue length, vector"
vector 44 Wireless_6_5m.hostB.wlan[0].mac.queue packetPopped:vector(packetBytes) ETV
attr interpolationmode none
attr title "packet popped, vector(packetBytes)"
vector 45 Wireless_6_5m.hostB.wlan[0].mac.queue queueingTime:vector ETV
attr interpolationmode none
attr source queueingTime(packetPopped)
attr title "queueing times, vector"
attr unit s
vector 46 Wireless_6_5m.hostC.wlan[0].mac.queue packetPushed:vector(packetBytes) ETV
attr interpolationmode none
attr title "packet pushed, vector(packetBytes)"
vector 47 Wireless_6_5m.hostC.wlan[0].mac.queue queueLength:vector ETV
attr interpolationmode sample-hold
attr source "count(packetPushed) - count(packetPopped) - count(packetRemoved) - count(packetDropped)"
attr title "queue length, vector"
vector 48 Wireless_6_5m.hostC.wlan[0].mac.queue packetPopped:vector(packetBytes) ETV
attr interpolationmode none
attr title "packet popped, vector(packetBytes)"
vector 49 Wireless_6_5m.hostC.wlan[0].mac.queue queueingTime:vector ETV
attr interpolationmode none
attr source queueingTime(packetPopped)
attr title "queueing times, vector"
attr unit s
vector 50 Wireless_6_5m.hostD.wlan[0].mac.queue packetPushed:vector(packetBytes) ETV
attr interpolationmode none
attr title "packet pushed, vector(packetBytes)"
vector 51 Wireless_6_5m.hostD.wlan[0].mac.queue queueLength:vector ETV
attr interpolationmode sample-hold
attr source "count(packetPushed) - count(packetPopped) - count(packetRemoved) - count(packetDropped)"
attr title "queue length, vector"
vector 52 Wireless_6_5m.hostD.wlan[0].mac.queue packetPopped:vector(packetBytes) ETV
attr interpolationmode none
attr title "packet popped, vector(packetBytes)"
vector 53 Wireless_6_5m.hostD.wlan[0].mac.queue queueingTime:vector ETV
attr interpolationmode none
attr source queueingTime(packetPopped)
attr title "queueing times, vector"
attr unit s
vector 54 Wireless_6_5m.hostE.wlan[0].mac.queue packetPushed:vector(packetBytes) ETV
attr interpolationmode none
attr title "packet pushed, vector(packetBytes)"
vector 55 Wireless_6_5m.hostE.wlan[0].mac.queue queueLength:vector ETV
attr interpolationmode sample-hold
attr source "count(packetPushed) - count(packetPopped) - count(packetRemoved) - count(packetDropped)"
attr title "queue length, vector"
vector 56 Wireless_6_5m.hostE.wlan[0].mac.queue packetPopped:vector(packetBytes) ETV
attr interpolationmode none
attr title "packet popped, vector(packetBytes)"
vector 57 Wireless_6_5m.hostE.wlan[0].mac.queue queueingTime:vector ETV
attr interpolationmode none
attr source queueingTime(packetPopped)
attr title "queueing times, vector"
attr unit s
vector 58 Wireless_6_5m.hostF.wlan[0].mac.queue packetPushed:vector(packetBytes) ETV
attr interpolationmode none
attr title "packet pushed, vector(packetBytes)"
vector 59 Wireless_6_5m.hostF.wlan[0].mac.queue queueLength:vector ETV
attr interpolationmode sample-hold
attr source "count(packetPushed) - count(packetPopped) - count(packetRemoved) - count(packetDropped)"
attr title "queue length, vector"
vector 60 Wireless_6_5m.hostF.wlan[0].mac.queue packetPopped:vector(packetBytes) ETV
attr interpolationmode none
attr title "packet popped, vector(packetBytes)"
vector 61 Wireless_6_5m.hostF.wlan[0].mac.queue queueingTime:vector ETV
attr interpolationmode none
attr source queueingTime(packetPopped)
attr title "queueing times, vector"
attr unit s
vector 62 Wireless_6_5m.hostG.wlan[0].mac.queue packetPushed:vector(packetBytes) ETV
attr interpolationmode none
attr title "packet pushed, vector(packetBytes)"
vector 63 Wireless_6_5m.hostG.wlan[0].mac.queue queueLength:vector ETV
attr interpolationmode sample-hold
attr source "count(packetPushed) - count(packetPopped) - count(packetRemoved) - count(packetDropped)"
attr title "queue length, vector"
vector 64 Wireless_6_5m.hostG.wlan[0].mac.queue packetPopped:vector(packetBytes) ETV
attr interpolationmode none
attr title "packet popped, vector(packetBytes)"
vector 65 Wireless_6_5m.hostG.wlan[0].mac.queue queueingTime:vector ETV
attr interpolationmode none
attr source queueingTime(packetPopped)
attr title "queueing times, vector"
attr unit s
vector 66 Wireless_6_5m.hostF.wlan[0].radio transmissionState:vector ETV
attr interpolationmode sample-hold
attr source transmissionStateChanged
attr title "Radio transmission state, vector"
vector 67 Wireless_6_5m.hostC.wlan[0].mac packetDropNotAddressedToUs:vector(packetBytes) ETV
attr interpolationmode none
attr source packetDropReasonIsNotAddressedToUs(packetDropped)
attr title "packet drop: not addressed to us, vector(packetBytes)"
vector 68 Wireless_6_5m.hostG.wlan[0].mac packetDropNotAddressedToUs:vector(packetBytes) ETV
attr interpolationmode none
attr source packetDropReasonIsNotAddressedToUs(packetDropped)
attr title "packet drop: not addressed to us, vector(packetBytes)"
vector 69 Wireless_6_5m.hostA.udp passedUpPk:vector(count) ETV
attr interpolationmode none
attr source packetSentToUpper
attr title "packets passed up, vector(count)"
vector 70 Wireless_6_5m.hostB.wlan[0].mac packetDropNotAddressedToUs:vector(packetBytes) ETV
attr interpolationmode none
attr source packetDropReasonIsNotAddressedToUs(packetDropped)
attr title "packet drop: not addressed to us, vector(packetBytes)"
vector 71 Wireless_6_5m.hostD.wlan[0].mac packetDropNotAddressedToUs:vector(packetBytes) ETV
attr interpolationmode none
attr source packetDropReasonIsNotAddressedToUs(packetDropped)
attr title "packet drop: not addressed to us, vector(packetBytes)"
vector 72 Wireless_6_5m.hostE.wlan[0].mac packetDropNotAddressedToUs:vector(packetBytes) ETV
attr interpolationmode none
attr source packetDropReasonIsNotAddressedToUs(packetDropped)
attr title "packet drop: not addressed to us, vector(packetBytes)"
vector 73 Wireless_6_5m.hostE.wlan[0].radio transmissionState:vector ETV
attr interpolationmode sample-hold
attr source transmissionStateChanged
attr title "Radio transmission state, vector"
vector 74 Wireless_6_5m.hostG.wlan[0].radio transmissionState:vector ETV
attr interpolationmode sample-hold
attr source transmissionStateChanged
attr title "Radio transmission state, vector"
vector 75 Wireless_6_5m.hostA.wlan[0].mac packetDropIncorrectlyReceived:vector(packetBytes) ETV
attr interpolationmode none
attr source packetDropReasonIsIncorrectlyReceived(packetDropped)
attr title "packet drop: incorrectly received, vector(packetBytes)"
vector 76 Wireless_6_5m.hostB.wlan[0].mac packetDropIncorrectlyReceived:vector(packetBytes) ETV
attr interpolationmode none
attr source packetDropReasonIsIncorrectlyReceived(packetDropped)
attr title "packet drop: incorrectly received, vector(packetBytes)"
vector 77 Wireless_6_5m.hostF.wlan[0].mac packetDropNotAddressedToUs:vector(packetBytes) ETV
attr interpolationmode none
attr source packetDropReasonIsNotAddressedToUs(packetDropped)
attr title "packet drop: not addressed to us, vector(packetBytes)"
vector 78 Wireless_6_5m.hostC.wlan[0].mac packetDropIncorrectlyReceived:vector(packetBytes) ETV
attr interpolationmode none
attr source packetDropReasonIsIncorrectlyReceived(packetDropped)
attr title "packet drop: incorrectly received, vector(packetBytes)"
vector 79 Wireless_6_5m.hostC.wlan[0].radio transmissionState:vector ETV
attr interpolationmode sample-hold
attr source transmissionStateChanged
attr title "Radio transmission state, vector"
vector 80 Wireless_6_5m.hostB.wlan[0].radio transmissionState:vector ETV
attr interpolationmode sample-hold
attr source transmissionStateChanged
attr title "Radio transmission state, vector"
vector 81 Wireless_6_5m.hostD.wlan[0].radio transmissionState:vector ETV
attr interpolationmode sample-hold
attr source transmissionStateChanged
attr title "Radio transmission state, vector"
0	0	0	0
0	0	0	0
0	0	0	2
0	22	0.00045	3
0	30	0.000996	2
0	109	0.001602033356	3
0	117	0.001820033356	2
0	199	0.003202095599	3
0	207	0.003420095599	2
0	248	0.004106128955	3
0	256	0.004324128955	2
0	296	0.004990162311	3
0	304	0.005208162311	2
0	343	0.006054195667	3
0	351	0.006272195667	2
0	389	0.007198229023	3
0	397	0.007416229023	2
1	0	0	0
1	0	0	0
1	0	0	2
1	272	0.004434145633	3
1	280	0.004980145633	2
2	0	0	0
2	0	0	0
2	0	0	2
2	173	0.002646078921	3
2	183	0.003192078921	2
3	0	0	0
3	0	0	0
3	0	0	2
3	319	0.005498178989	3
3	327	0.006044178989	2
4	0	0	0
4	0	0	0
4	0	0	2
4	135	0.001910050034	3
4	151	0.002456050034	2
4	224	0.003550112277	3
4	232	0.004096112277	2
5	0	0	0
5	0	0	0
5	0	0	2
5	85	0.001046016678	3
5	93	0.001592016678	2
6	0	0	0
6	0	0	0
6	0	0	2
6	136	0.001910050034	3
6	152	0.002456050034	2
6	365	0.006642212345	3
6	373	0.007188212345	2
7	0	0	1
7	22	0.00045	0
7	30	0.000996	1
7	87	0.001046033356	3
7	94	0.001592033356	1
7	109	0.001602033356	0
7	117	0.001820033356	1
7	139	0.001910066712	3
7	153	0.002456066712	1
7	175	0.002646095599	3
7	184	0.003192095599	1
7	199	0.003202095599	0
7	207	0.003420095599	1
7	226	0.003550128955	3
7	233	0.004096128955	1
7	248	0.004106128955	0
7	256	0.004324128955	1
7	274	0.004434162311	3
7	281	0.004980162311	1
7	296	0.004990162311	0
7	304	0.005208162311	1
7	321	0.005498195667	3
7	328	0.006044195667	1
7	343	0.006054195667	0
7	351	0.006272195667	1
7	367	0.006642229023	3
7	374	0.007188229023	1
7	389	0.007198229023	0
7	397	0.007416229023	1
8	0	0	1
8	24	0.000450016678	3
8	31	0.000996016678	1
8	90	0.001046045565	3
8	103	0.001592045565	1
8	111	0.001602050034	3
8	118	0.001820050034	1
8	140	0.001910066712	3
8	154	0.002456066712	1
8	180	0.002646112277	3
8	197	0.003192112277	1
8	201	0.003202112277	3
8	208	0.003420112277	1
8	227	0.003550128955	3
8	234	0.004096128955	1
8	250	0.004106145633	3
8	257	0.004324145633	1
8	272	0.004434145633	0
8	280	0.004980145633	1
8	298	0.004990178989	3
8	305	0.005208178989	1
8	324	0.005498207876	3
8	337	0.006044207876	1
8	345	0.006054212345	3
8	352	0.006272212345	1
8	368	0.006642229023	3
8	375	0.007188229023	1
8	391	0.007198245701	3
8	398	0.007416245701	1
9	0	0	1
9	25	0.000450016678	3
9	32	0.000996016678	1
9	88	0.001046033356	3
9	95	0.001592033356	1
9	112	0.001602050034	3
9	119	0.001820050034	1
9	145	0.001910078921	3
9	163	0.002456078921	1
9	173	0.002646078921	0
9	183	0.003192078921	1
9	202	0.003202112277	3
9	209	0.003420112277	1
9	229	0.003550141164	3
9	242	0.004096141164	1
9	251	0.004106145633	3
9	258	0.004324145633	1
9	279	0.004434178989	3
9	294	0.004980178989	1
9	299	0.004990178989	3
9	306	0.005208178989	1
9	322	0.005498195667	3
9	329	0.006044195667	1
9	346	0.006054212345	3
9	353	0.006272212345	1
9	370	0.006642241232	3
9	383	0.007188241232	1
9	392	0.007198245701	3
9	399	0.007416245701	1
10	0	0	1
10	26	0.000450016678	3
10	33	0.000996016678	1
10	91	0.001046045565	3
10	104	0.001592045565	1
10	113	0.001602050034	3
10	120	0.001820050034	1
10	141	0.001910066712	3
10	155	0.002456066712	2
10	169	0.00245608339	1
10	176	0.002646095599	3
10	185	0.003192095599	1
10	203	0.003202112277	3
10	210	0.003420112277	1
10	228	0.003550128955	3
10	235	0.004096128955	1
10	252	0.004106145633	3
10	259	0.004324145633	1
10	277	0.00443417452	3
10	290	0.00498017452	1
10	300	0.004990178989	3
10	307	0.005208178989	1
10	319	0.005498178989	0
10	327	0.006044178989	1
10	347	0.006054212345	3
10	354	0.006272212345	1
10	372	0.006642245701	3
10	387	0.007188245701	1
10	393	0.007198245701	3
10	400	0.007416245701	1
11	0	0	1
11	27	0.000450016678	3
11	34	0.000996016678	1
11	92	0.001046050034	3
11	107	0.001592050034	1
11	114	0.001602050034	3
11	121	0.001820050034	1
11	135	0.001910050034	0
11	151	0.002456050034	2
11	166	0.002456078921	1
11	178	0.002646107808	3
11	193	0.003192107808	1
11	204	0.003202112277	3
11	211	0.003420112277	1
11	224	0.003550112277	0
11	232	0.004096112277	1
11	253	0.004106145633	3
11	260	0.004324145633	1
11	275	0.004434162311	3
11	282	0.004980162311	1
11	301	0.004990178989	3
11	308	0.005208178989	1
11	323	0.005498195667	3
11	330	0.006044195667	1
11	348	0.006054212345	3
11	355	0.006272212345	1
11	371	0.006642241232	3
11	384	0.007188241232	1
11	394	0.007198245701	3
11	401	0.007416245701	1
12	0	0	1
12	28	0.000450016678	3
12	35	0.000996016678	1
12	85	0.001046016678	0
12	93	0.001592016678	1
12	115	0.001602050034	3
12	122	0.001820050034	1
12	144	0.001910066712	3
12	158	0.002456066712	2
12	168	0.00245608339	1
12	177	0.002646095599	3
12	186	0.003192095599	1
12	205	0.003202112277	3
12	212	0.003420112277	1
12	231	0.003550145633	3
12	246	0.004096145633	1
12	254	0.004106145633	3
12	261	0.004324145633	1
12	278	0.00443417452	3
12	291	0.00498017452	1
12	302	0.004990178989	3
12	309	0.005208178989	1
12	325	0.005498207876	3
12	338	0.006044207876	1
12	349	0.006054212345	3
12	356	0.006272212345	1
12	369	0.006642229023	3
12	376	0.007188229023	1
12	395	0.007198245701	3
12	402	0.007416245701	1
13	0	0	1
13	29	0.000450016678	3
13	36	0.000996016678	1
13	89	0.001046033356	3
13	96	0.001592033356	1
13	116	0.001602050034	3
13	123	0.001820050034	1
13	136	0.001910050034	0
13	152	0.002456050034	2
13	164	0.002456078921	1
13	179	0.002646107808	3
13	194	0.003192107808	1
13	206	0.003202112277	3
13	213	0.003420112277	1
13	230	0.003550141164	3
13	243	0.004096141164	1
13	255	0.004106145633	3
13	262	0.004324145633	1
13	276	0.004434162311	3
13	283	0.004980162311	1
13	303	0.004990178989	3
13	310	0.005208178989	1
13	326	0.005498212345	3
13	341	0.006044212345	1
13	350	0.006054212345	3
13	357	0.006272212345	1
13	365	0.006642212345	0
13	373	0.007188212345	1
13	396	0.007198245701	3
13	403	0.007416245701	1
14	3	0	12
15	17	0	32
16	17	0	32
17	18	0	59
18	18	0	1
18	18	0	0
19	18	0	59
20	18	0	0
21	20	0	12
21	101	0.001592033356	12
21	191	0.003192095599	12
21	240	0.004096128955	12
21	288	0.004980162311	12
21	335	0.006044195667	12
21	381	0.007188229023	12
22	20	0	1
23	22	0.00045	1
23	23	0.00045	2
23	30	0.000996	1
23	30	0.000996	0
23	109	0.001602033356	1
23	110	0.001602033356	2
23	117	0.001820033356	1
23	117	0.001820033356	0
23	199	0.003202095599	1
23	200	0.003202095599	2
23	207	0.003420095599	1
23	207	0.003420095599	0
23	248	0.004106128955	1
23	249	0.004106128955	2
23	256	0.004324128955	1
23	256	0.004324128955	0
23	296	0.004990162311	1
23	297	0.004990162311	2
23	304	0.005208162311	1
23	304	0.005208162311	0
23	343	0.006054195667	1
23	344	0.006054195667	2
23	351	0.006272195667	1
23	351	0.006272195667	0
23	389	0.007198229023	1
23	390	0.007198229023	2
23	397	0.007416229023	1
23	397	0.007416229023	0
24	49	0.000996016678	12
25	49	0.000996016678	1
26	50	0.000996016678	12
27	50	0.000996016678	1
28	51	0.000996016678	12
29	51	0.000996016678	1
30	52	0.000996016678	12
31	52	0.000996016678	1
32	53	0.000996016678	12
33	53	0.000996016678	1
34	54	0.000996016678	12
35	54	0.000996016678	1
36	61	0.000996016678	12
37	62	0.000996016678	12
38	63	0.000996016678	12
39	64	0.000996016678	12
40	65	0.000996016678	12
41	66	0.000996016678	12
42	73	0.000996016678	59
43	73	0.000996016678	1
43	73	0.000996016678	0
44	73	0.000996016678	59
45	73	0.000996016678	0
46	74	0.000996016678	59
47	74	0.000996016678	1
47	74	0.000996016678	0
48	74	0.000996016678	59
49	74	0.000996016678	0
50	75	0.000996016678	59
51	75	0.000996016678	1
51	75	0.000996016678	0
52	75	0.000996016678	59
53	75	0.000996016678	0
54	76	0.000996016678	59
55	76	0.000996016678	1
55	76	0.000996016678	0
56	76	0.000996016678	59
57	76	0.000996016678	0
58	77	0.000996016678	59
59	77	0.000996016678	1
59	77	0.000996016678	0
60	77	0.000996016678	59
61	77	0.000996016678	0
62	78	0.000996016678	59
63	78	0.000996016678	1
63	78	0.000996016678	0
64	78	0.000996016678	59
65	78	0.000996016678	0
66	85	0.001046016678	1
66	86	0.001046016678	2
66	93	0.001592016678	1
66	93	0.001592016678	0
67	98	0.001592033356	59
67	244	0.004096141164	59
67	295	0.004980178989	59
67	332	0.006044195667	59
67	385	0.007188241232	59
68	99	0.001592033356	59
68	196	0.003192107808	59
68	245	0.004096141164	59
68	286	0.004980162311	59
68	342	0.006044212345	59
69	101	0.001592033356	1
69	191	0.003192095599	2
69	240	0.004096128955	3
69	288	0.004980162311	4
69	335	0.006044195667	5
69	381	0.007188229023	6
70	105	0.001592045565	59
70	198	0.003192112277	59
70	237	0.004096128955	59
70	339	0.006044207876	59
70	378	0.007188229023	59
71	106	0.001592045565	59
71	161	0.002456066712	59
71	188	0.003192095599	59
71	238	0.004096128955	59
71	292	0.00498017452	59
71	388	0.007188245701	59
72	108	0.001592050034	59
72	195	0.003192107808	59
72	285	0.004980162311	59
72	333	0.006044195667	59
72	386	0.007188241232	59
73	135	0.001910050034	1
73	137	0.001910050034	2
73	151	0.002456050034	1
73	151	0.002456050034	0
73	224	0.003550112277	1
73	225	0.003550112277	2
73	232	0.004096112277	1
73	232	0.004096112277	0
74	136	0.001910050034	1
74	138	0.001910050034	2
74	152	0.002456050034	1
74	152	0.002456050034	0
74	365	0.006642212345	1
74	366	0.006642212345	2
74	373	0.007188212345	1
74	373	0.007188212345	0
75	159	0.002456066712	59
76	160	0.002456066712	59
77	162	0.002456066712	59
77	189	0.003192095599	59
77	247	0.004096145633	59
77	293	0.00498017452	59
77	340	0.006044207876	59
77	379	0.007188229023	59
78	167	0.002456078921	59
79	173	0.002646078921	1
79	174	0.002646078921	2
79	183	0.003192078921	1
79	183	0.003192078921	0
80	272	0.004434145633	1
80	273	0.004434145633	2
80	280	0.004980145633	1
80	280	0.004980145633	0
81	319	0.005498178989	1
81	320	0.005498178989	2
81	327	0.006044178989	1
81	327	0.006044178989	0

