version 2
run Wireless01-21-20200717-17:53:56-13422
attr configname Wireless01
attr datetime 20200717-17:53:56
attr experiment Wireless01
attr inifile omnetpp.ini
attr iterationvars $name=WirelessA
attr iterationvarsf name=WirelessA-
attr measurement $name=WirelessA
attr network "${name=WirelessA, Wireless_3_1, Wireless_3_5, Wireless_3_10, Wireless_6_1,Wireless_6_5,Wireless_6_10,Wireless_12_1,Wireless_12_5,Wireless_12_10}"
attr processid 13422
attr repetition 21
attr replication #21
attr resultdir results
attr runnumber 21
attr seedset 21
itervar name WirelessA
param *.hostA.numApps 1
param *.hostA.app[0].typename "\"TDOAApp\""
param *.hostA.app[0].destAddresses "\"Broadcast\""
param *.hostA.app[0].destPort 5000
param *.hostA.app[0].localPort 6000
param *.hostA.app[0].isReceiver false
param *.hostA.app[0].Nome_arquivo "\"WirelessA.csv\""
param *.host*.numApps 1
param *.host*.app[0].typename "\"TDOAApp\""
param *.host*.app[0].localPort 5000
param *.host*.app[0].destPort 6000
param *.host*.app[0].destAddresses "\"hostA\""
param *.host*.app[0].isReceiver true
param *.host*.wlan[0].typename "\"WirelessInterface\""
param *.radioMedium.typename "\"ApskScalarRadioMedium\""
param *.radioMedium.backgroundNoise.power -90dBm
param *.radioMedium.mediumLimitCache.centerFrequency 2GHz
param *.host*.wlan[0].radio.typename "\"ApskScalarRadio\""
param *.host*.wlan[0].radio.centerFrequency 2GHz
param *.host*.wlan[0].radio.bandwidth 2MHz
param *.host*.wlan[0].radio.transmitter.power 1.4mW
param *.host*.wlan[0].radio.transmitter.preambleDuration 10us
param *.host*.wlan[0].radio.transmitter.headerLength 8B
param *.host*.wlan[0].radio.receiver.sensitivity -85dBm
param *.host*.wlan[0].radio.receiver.energyDetection -85dBm
param *.host*.wlan[0].radio.receiver.snirThreshold 4dB
param *.host*.wlan[0].mac.typename "\"CsmaCaMac\""
param *.host*.wlan[0].mac.ackTimeout 300us
param *.host*.wlan[0].mac.useAck true
param *.host*.wlan[0].mac.fullDuplex false
param *.host*.wlan[0].radio.receiver.ignoreInterference true
param *.host*.wlan[0].mac.headerLength 23B
param *.host*.**.bitrate 1Mbps
param *.host*.ipv4.arp.typename "\"GlobalArp\""
param **.ip.limitedBroadcast true

vector 0 WirelessA.hostA.wlan[0].radio radioMode:vector ETV
attr interpolationmode sample-hold
attr source radioModeChanged
attr title "Radio mode, vector"
vector 1 WirelessA.hostB.wlan[0].radio radioMode:vector ETV
attr interpolationmode sample-hold
attr source radioModeChanged
attr title "Radio mode, vector"
vector 2 WirelessA.hostC.wlan[0].radio radioMode:vector ETV
attr interpolationmode sample-hold
attr source radioModeChanged
attr title "Radio mode, vector"
vector 3 WirelessA.hostD.wlan[0].radio radioMode:vector ETV
attr interpolationmode sample-hold
attr source radioModeChanged
attr title "Radio mode, vector"
vector 4 WirelessA.hostA.wlan[0].radio receptionState:vector ETV
attr interpolationmode sample-hold
attr source receptionStateChanged
attr title "Radio reception state, vector"
vector 5 WirelessA.hostB.wlan[0].radio receptionState:vector ETV
attr interpolationmode sample-hold
attr source receptionStateChanged
attr title "Radio reception state, vector"
vector 6 WirelessA.hostC.wlan[0].radio receptionState:vector ETV
attr interpolationmode sample-hold
attr source receptionStateChanged
attr title "Radio reception state, vector"
vector 7 WirelessA.hostD.wlan[0].radio receptionState:vector ETV
attr interpolationmode sample-hold
attr source receptionStateChanged
attr title "Radio reception state, vector"
vector 8 WirelessA.hostA.udp packetSent:vector(packetBytes) ETV
attr interpolationmode none
attr source packetSent
attr title "packets sent, vector(packetBytes)"
vector 9 WirelessA.hostA.lo[0].lo rcvdPkFromHl:vector(packetBytes) ETV
attr interpolationmode none
attr source packetReceivedFromUpper
attr title "packets received from higher layer, vector(packetBytes)"
vector 10 WirelessA.hostA.lo[0].lo passedUpPk:vector(packetBytes) ETV
attr interpolationmode none
attr source packetSentToUpper
attr title "packets passed to higher layer, vector(packetBytes)"
vector 11 WirelessA.hostA.wlan[0].mac.queue packetPushed:vector(packetBytes) ETV
attr interpolationmode none
attr title "packet pushed, vector(packetBytes)"
vector 12 WirelessA.hostA.wlan[0].mac.queue queueLength:vector ETV
attr interpolationmode sample-hold
attr source "count(packetPushed) - count(packetPopped) - count(packetRemoved) - count(packetDropped)"
attr title "queue length, vector"
vector 13 WirelessA.hostA.wlan[0].mac.queue packetPopped:vector(packetBytes) ETV
attr interpolationmode none
attr title "packet popped, vector(packetBytes)"
vector 14 WirelessA.hostA.wlan[0].mac.queue queueingTime:vector ETV
attr interpolationmode none
attr source queueingTime(packetPopped)
attr title "queueing times, vector"
attr unit s
vector 15 WirelessA.hostA.udp packetReceived:vector(packetBytes) ETV
attr interpolationmode none
attr source packetReceived
attr title "packets received, vector(packetBytes)"
vector 16 WirelessA.hostA.udp droppedPkWrongPort:vector(count) ETV
attr interpolationmode none
attr source packetDropReasonIsNoPortFound(packetDropped)
attr title "packets dropped (wrong port), vector(count)"
vector 17 WirelessA.hostA.wlan[0].radio transmissionState:vector ETV
attr interpolationmode sample-hold
attr source transmissionStateChanged
attr title "Radio transmission state, vector"
vector 18 WirelessA.hostC.udp packetReceived:vector(packetBytes) ETV
attr interpolationmode none
attr source packetReceived
attr title "packets received, vector(packetBytes)"
vector 19 WirelessA.hostC.udp passedUpPk:vector(count) ETV
attr interpolationmode none
attr source packetSentToUpper
attr title "packets passed up, vector(count)"
vector 20 WirelessA.hostD.udp packetReceived:vector(packetBytes) ETV
attr interpolationmode none
attr source packetReceived
attr title "packets received, vector(packetBytes)"
vector 21 WirelessA.hostD.udp passedUpPk:vector(count) ETV
attr interpolationmode none
attr source packetSentToUpper
attr title "packets passed up, vector(count)"
vector 22 WirelessA.hostC.udp packetSent:vector(packetBytes) ETV
attr interpolationmode none
attr source packetSent
attr title "packets sent, vector(packetBytes)"
vector 23 WirelessA.hostD.udp packetSent:vector(packetBytes) ETV
attr interpolationmode none
attr source packetSent
attr title "packets sent, vector(packetBytes)"
vector 24 WirelessA.hostC.wlan[0].mac.queue packetPushed:vector(packetBytes) ETV
attr interpolationmode none
attr title "packet pushed, vector(packetBytes)"
vector 25 WirelessA.hostC.wlan[0].mac.queue queueLength:vector ETV
attr interpolationmode sample-hold
attr source "count(packetPushed) - count(packetPopped) - count(packetRemoved) - count(packetDropped)"
attr title "queue length, vector"
vector 26 WirelessA.hostC.wlan[0].mac.queue packetPopped:vector(packetBytes) ETV
attr interpolationmode none
attr title "packet popped, vector(packetBytes)"
vector 27 WirelessA.hostC.wlan[0].mac.queue queueingTime:vector ETV
attr interpolationmode none
attr source queueingTime(packetPopped)
attr title "queueing times, vector"
attr unit s
vector 28 WirelessA.hostD.wlan[0].mac.queue packetPushed:vector(packetBytes) ETV
attr interpolationmode none
attr title "packet pushed, vector(packetBytes)"
vector 29 WirelessA.hostD.wlan[0].mac.queue queueLength:vector ETV
attr interpolationmode sample-hold
attr source "count(packetPushed) - count(packetPopped) - count(packetRemoved) - count(packetDropped)"
attr title "queue length, vector"
vector 30 WirelessA.hostD.wlan[0].mac.queue packetPopped:vector(packetBytes) ETV
attr interpolationmode none
attr title "packet popped, vector(packetBytes)"
vector 31 WirelessA.hostD.wlan[0].mac.queue queueingTime:vector ETV
attr interpolationmode none
attr source queueingTime(packetPopped)
attr title "queueing times, vector"
attr unit s
vector 32 WirelessA.hostB.udp packetReceived:vector(packetBytes) ETV
attr interpolationmode none
attr source packetReceived
attr title "packets received, vector(packetBytes)"
vector 33 WirelessA.hostB.udp passedUpPk:vector(count) ETV
attr interpolationmode none
attr source packetSentToUpper
attr title "packets passed up, vector(count)"
vector 34 WirelessA.hostB.udp packetSent:vector(packetBytes) ETV
attr interpolationmode none
attr source packetSent
attr title "packets sent, vector(packetBytes)"
vector 35 WirelessA.hostB.wlan[0].mac.queue packetPushed:vector(packetBytes) ETV
attr interpolationmode none
attr title "packet pushed, vector(packetBytes)"
vector 36 WirelessA.hostB.wlan[0].mac.queue queueLength:vector ETV
attr interpolationmode sample-hold
attr source "count(packetPushed) - count(packetPopped) - count(packetRemoved) - count(packetDropped)"
attr title "queue length, vector"
vector 37 WirelessA.hostB.wlan[0].mac.queue packetPopped:vector(packetBytes) ETV
attr interpolationmode none
attr title "packet popped, vector(packetBytes)"
vector 38 WirelessA.hostB.wlan[0].mac.queue queueingTime:vector ETV
attr interpolationmode none
attr source queueingTime(packetPopped)
attr title "queueing times, vector"
attr unit s
vector 39 WirelessA.hostD.wlan[0].radio transmissionState:vector ETV
attr interpolationmode sample-hold
attr source transmissionStateChanged
attr title "Radio transmission state, vector"
vector 40 WirelessA.hostA.udp passedUpPk:vector(count) ETV
attr interpolationmode none
attr source packetSentToUpper
attr title "packets passed up, vector(count)"
vector 41 WirelessA.hostC.wlan[0].mac packetDropNotAddressedToUs:vector(packetBytes) ETV
attr interpolationmode none
attr source packetDropReasonIsNotAddressedToUs(packetDropped)
attr title "packet drop: not addressed to us, vector(packetBytes)"
vector 42 WirelessA.hostB.wlan[0].mac packetDropNotAddressedToUs:vector(packetBytes) ETV
attr interpolationmode none
attr source packetDropReasonIsNotAddressedToUs(packetDropped)
attr title "packet drop: not addressed to us, vector(packetBytes)"
vector 43 WirelessA.hostC.wlan[0].radio transmissionState:vector ETV
attr interpolationmode sample-hold
attr source transmissionStateChanged
attr title "Radio transmission state, vector"
vector 44 WirelessA.hostB.wlan[0].radio transmissionState:vector ETV
attr interpolationmode sample-hold
attr source transmissionStateChanged
attr title "Radio transmission state, vector"
vector 45 WirelessA.hostD.wlan[0].mac packetDropNotAddressedToUs:vector(packetBytes) ETV
attr interpolationmode none
attr source packetDropReasonIsNotAddressedToUs(packetDropped)
attr title "packet drop: not addressed to us, vector(packetBytes)"
0	0	0	0
0	0	0	0
0	0	0	2
0	16	0.00021	3
0	21	0.000756	2
0	64	0.001542333564	3
0	69	0.001760333564	2
0	101	0.002766667128	3
0	106	0.002984667128	2
0	130	0.004843334256	3
0	135	0.005061334256	2
1	0	0	0
1	0	0	0
1	0	0	2
1	82	0.00221083391	3
1	96	0.00275683391	2
1	115	0.00428683391	3
1	120	0.00483283391	2
2	0	0	0
2	0	0	0
2	0	0	2
2	78	0.002210500346	3
2	88	0.002756500346	2
3	0	0	0
3	0	0	0
3	0	0	2
3	49	0.000986166782	3
3	54	0.001532166782	2
4	0	0	1
4	16	0.00021	0
4	21	0.000756	1
4	51	0.000986333564	3
4	55	0.001532333564	1
4	64	0.001542333564	0
4	69	0.001760333564	1
4	80	0.002210667128	3
4	89	0.002756667128	2
4	98	0.002757334256	1
4	101	0.002766667128	0
4	106	0.002984667128	1
4	117	0.004287334256	3
4	121	0.004833334256	1
4	130	0.004843334256	0
4	135	0.005061334256	1
5	0	0	1
5	20	0.000210500346	3
5	38	0.000756500346	1
5	53	0.00098683391	3
5	62	0.00153283391	1
5	68	0.00154283391	3
5	74	0.00176083391	1
5	82	0.00221083391	0
5	96	0.00275683391	2
5	97	0.002757027757	1
5	105	0.002767167474	3
5	111	0.002985167474	1
5	115	0.00428683391	0
5	120	0.00483283391	1
5	134	0.004843834602	3
5	140	0.005061834602	1
6	0	0	1
6	18	0.000210166782	3
6	22	0.000756166782	1
6	52	0.000986402647	3
6	60	0.001532402647	1
6	66	0.001542500346	3
6	70	0.001760500346	1
6	78	0.002210500346	0
6	88	0.002756500346	2
6	99	0.002757361321	1
6	103	0.00276683391	3
6	107	0.00298483391	1
6	118	0.004287361321	3
6	126	0.004833361321	1
6	132	0.004843501038	3
6	136	0.005061501038	1
7	0	0	1
7	19	0.000210166782	3
7	23	0.000756166782	1
7	49	0.000986166782	0
7	54	0.001532166782	1
7	67	0.001542500346	3
7	71	0.001760500346	1
7	81	0.002210736211	3
7	94	0.002756736211	2
7	100	0.002757501038	1
7	104	0.00276683391	3
7	108	0.00298483391	1
7	119	0.004287501038	3
7	128	0.004833501038	1
7	133	0.004843501038	3
7	137	0.005061501038	1
8	3	0	12
9	11	0	32
10	11	0	32
11	12	0	59
12	12	0	1
12	12	0	0
13	12	0	59
14	12	0	0
15	14	0	12
15	58	0.001532333564	12
15	92	0.002756667128	12
15	124	0.004833334256	12
16	14	0	1
17	16	0.00021	1
17	17	0.00021	2
17	21	0.000756	1
17	21	0.000756	0
17	64	0.001542333564	1
17	65	0.001542333564	2
17	69	0.001760333564	1
17	69	0.001760333564	0
17	101	0.002766667128	1
17	102	0.002766667128	2
17	106	0.002984667128	1
17	106	0.002984667128	0
17	130	0.004843334256	1
17	131	0.004843334256	2
17	135	0.005061334256	1
17	135	0.005061334256	0
18	28	0.000756166782	12
19	28	0.000756166782	1
20	29	0.000756166782	12
21	29	0.000756166782	1
22	32	0.000756166782	12
23	33	0.000756166782	12
24	36	0.000756166782	59
25	36	0.000756166782	1
25	36	0.000756166782	0
26	36	0.000756166782	59
27	36	0.000756166782	0
28	37	0.000756166782	59
29	37	0.000756166782	1
29	37	0.000756166782	0
30	37	0.000756166782	59
31	37	0.000756166782	0
32	41	0.000756500346	12
33	41	0.000756500346	1
34	43	0.000756500346	12
35	45	0.000756500346	59
36	45	0.000756500346	1
36	45	0.000756500346	0
37	45	0.000756500346	59
38	45	0.000756500346	0
39	49	0.000986166782	1
39	50	0.000986166782	2
39	54	0.001532166782	1
39	54	0.001532166782	0
40	58	0.001532333564	1
40	92	0.002756667128	2
40	124	0.004833334256	3
41	61	0.001532402647	59
41	127	0.004833361321	59
42	63	0.00153283391	59
43	78	0.002210500346	1
43	79	0.002210500346	2
43	88	0.002756500346	1
43	88	0.002756500346	0
44	82	0.00221083391	1
44	83	0.00221083391	2
44	96	0.00275683391	1
44	96	0.00275683391	0
44	115	0.00428683391	1
44	116	0.00428683391	2
44	120	0.00483283391	1
44	120	0.00483283391	0
45	95	0.002756736211	59
45	129	0.004833501038	59

