version 2
run Wireless01-202-20200717-17:33:27-12123
attr configname Wireless01
attr datetime 20200717-17:33:27
attr experiment Wireless01
attr inifile omnetpp.ini
attr iterationvars $name=Wireless_6_10
attr iterationvarsf name=Wireless#_6#_10-
attr measurement $name=Wireless_6_10
attr network "${name=WirelessA, Wireless_3_1, Wireless_3_5, Wireless_3_10, Wireless_6_1,Wireless_6_5,Wireless_6_10,Wireless_12_1,Wireless_12_5,Wireless_12_10}"
attr processid 12123
attr repetition 22
attr replication #22
attr resultdir results
attr runnumber 202
attr seedset 202
itervar name Wireless_6_10
param *.hostA.numApps 1
param *.hostA.app[0].typename "\"TDOAApp\""
param *.hostA.app[0].destAddresses "\"Broadcast\""
param *.hostA.app[0].destPort 5000
param *.hostA.app[0].localPort 6000
param *.hostA.app[0].isReceiver false
param *.hostA.app[0].Nome_arquivo "\"Wireless_6_10.csv\""
param *.host*.numApps 1
param *.host*.app[0].typename "\"TDOAApp\""
param *.host*.app[0].localPort 5000
param *.host*.app[0].destPort 6000
param *.host*.app[0].destAddresses "\"hostA\""
param *.host*.app[0].isReceiver true
param *.host*.wlan[0].typename "\"WirelessInterface\""
param *.radioMedium.typename "\"ApskScalarRadioMedium\""
param *.radioMedium.backgroundNoise.power -90dBm
param *.radioMedium.mediumLimitCache.centerFrequency 2GHz
param *.host*.wlan[0].radio.typename "\"ApskScalarRadio\""
param *.host*.wlan[0].radio.centerFrequency 2GHz
param *.host*.wlan[0].radio.bandwidth 2MHz
param *.host*.wlan[0].radio.transmitter.power 1.4mW
param *.host*.wlan[0].radio.transmitter.preambleDuration 10us
param *.host*.wlan[0].radio.transmitter.headerLength 8B
param *.host*.wlan[0].radio.receiver.sensitivity -85dBm
param *.host*.wlan[0].radio.receiver.energyDetection -85dBm
param *.host*.wlan[0].radio.receiver.snirThreshold 4dB
param *.host*.wlan[0].mac.typename "\"CsmaCaMac\""
param *.host*.wlan[0].mac.ackTimeout 300us
param *.host*.wlan[0].mac.useAck true
param *.host*.wlan[0].mac.fullDuplex false
param *.host*.wlan[0].radio.receiver.ignoreInterference true
param *.host*.wlan[0].mac.headerLength 23B
param *.host*.**.bitrate 1Mbps
param *.host*.ipv4.arp.typename "\"GlobalArp\""
param **.ip.limitedBroadcast true

vector 0 Wireless_6_10.hostA.wlan[0].radio radioMode:vector ETV
attr interpolationmode sample-hold
attr source radioModeChanged
attr title "Radio mode, vector"
vector 1 Wireless_6_10.hostB.wlan[0].radio radioMode:vector ETV
attr interpolationmode sample-hold
attr source radioModeChanged
attr title "Radio mode, vector"
vector 2 Wireless_6_10.hostC.wlan[0].radio radioMode:vector ETV
attr interpolationmode sample-hold
attr source radioModeChanged
attr title "Radio mode, vector"
vector 3 Wireless_6_10.hostD.wlan[0].radio radioMode:vector ETV
attr interpolationmode sample-hold
attr source radioModeChanged
attr title "Radio mode, vector"
vector 4 Wireless_6_10.hostE.wlan[0].radio radioMode:vector ETV
attr interpolationmode sample-hold
attr source radioModeChanged
attr title "Radio mode, vector"
vector 5 Wireless_6_10.hostF.wlan[0].radio radioMode:vector ETV
attr interpolationmode sample-hold
attr source radioModeChanged
attr title "Radio mode, vector"
vector 6 Wireless_6_10.hostG.wlan[0].radio radioMode:vector ETV
attr interpolationmode sample-hold
attr source radioModeChanged
attr title "Radio mode, vector"
vector 7 Wireless_6_10.hostA.wlan[0].radio receptionState:vector ETV
attr interpolationmode sample-hold
attr source receptionStateChanged
attr title "Radio reception state, vector"
vector 8 Wireless_6_10.hostB.wlan[0].radio receptionState:vector ETV
attr interpolationmode sample-hold
attr source receptionStateChanged
attr title "Radio reception state, vector"
vector 9 Wireless_6_10.hostC.wlan[0].radio receptionState:vector ETV
attr interpolationmode sample-hold
attr source receptionStateChanged
attr title "Radio reception state, vector"
vector 10 Wireless_6_10.hostD.wlan[0].radio receptionState:vector ETV
attr interpolationmode sample-hold
attr source receptionStateChanged
attr title "Radio reception state, vector"
vector 11 Wireless_6_10.hostE.wlan[0].radio receptionState:vector ETV
attr interpolationmode sample-hold
attr source receptionStateChanged
attr title "Radio reception state, vector"
vector 12 Wireless_6_10.hostF.wlan[0].radio receptionState:vector ETV
attr interpolationmode sample-hold
attr source receptionStateChanged
attr title "Radio reception state, vector"
vector 13 Wireless_6_10.hostG.wlan[0].radio receptionState:vector ETV
attr interpolationmode sample-hold
attr source receptionStateChanged
attr title "Radio reception state, vector"
vector 14 Wireless_6_10.hostA.udp packetSent:vector(packetBytes) ETV
attr interpolationmode none
attr source packetSent
attr title "packets sent, vector(packetBytes)"
vector 15 Wireless_6_10.hostA.lo[0].lo rcvdPkFromHl:vector(packetBytes) ETV
attr interpolationmode none
attr source packetReceivedFromUpper
attr title "packets received from higher layer, vector(packetBytes)"
vector 16 Wireless_6_10.hostA.lo[0].lo passedUpPk:vector(packetBytes) ETV
attr interpolationmode none
attr source packetSentToUpper
attr title "packets passed to higher layer, vector(packetBytes)"
vector 17 Wireless_6_10.hostA.wlan[0].mac.queue packetPushed:vector(packetBytes) ETV
attr interpolationmode none
attr title "packet pushed, vector(packetBytes)"
vector 18 Wireless_6_10.hostA.wlan[0].mac.queue queueLength:vector ETV
attr interpolationmode sample-hold
attr source "count(packetPushed) - count(packetPopped) - count(packetRemoved) - count(packetDropped)"
attr title "queue length, vector"
vector 19 Wireless_6_10.hostA.wlan[0].mac.queue packetPopped:vector(packetBytes) ETV
attr interpolationmode none
attr title "packet popped, vector(packetBytes)"
vector 20 Wireless_6_10.hostA.wlan[0].mac.queue queueingTime:vector ETV
attr interpolationmode none
attr source queueingTime(packetPopped)
attr title "queueing times, vector"
attr unit s
vector 21 Wireless_6_10.hostA.udp packetReceived:vector(packetBytes) ETV
attr interpolationmode none
attr source packetReceived
attr title "packets received, vector(packetBytes)"
vector 22 Wireless_6_10.hostA.udp droppedPkWrongPort:vector(count) ETV
attr interpolationmode none
attr source packetDropReasonIsNoPortFound(packetDropped)
attr title "packets dropped (wrong port), vector(count)"
vector 23 Wireless_6_10.hostA.wlan[0].radio transmissionState:vector ETV
attr interpolationmode sample-hold
attr source transmissionStateChanged
attr title "Radio transmission state, vector"
vector 24 Wireless_6_10.hostB.udp packetReceived:vector(packetBytes) ETV
attr interpolationmode none
attr source packetReceived
attr title "packets received, vector(packetBytes)"
vector 25 Wireless_6_10.hostB.udp passedUpPk:vector(count) ETV
attr interpolationmode none
attr source packetSentToUpper
attr title "packets passed up, vector(count)"
vector 26 Wireless_6_10.hostC.udp packetReceived:vector(packetBytes) ETV
attr interpolationmode none
attr source packetReceived
attr title "packets received, vector(packetBytes)"
vector 27 Wireless_6_10.hostC.udp passedUpPk:vector(count) ETV
attr interpolationmode none
attr source packetSentToUpper
attr title "packets passed up, vector(count)"
vector 28 Wireless_6_10.hostD.udp packetReceived:vector(packetBytes) ETV
attr interpolationmode none
attr source packetReceived
attr title "packets received, vector(packetBytes)"
vector 29 Wireless_6_10.hostD.udp passedUpPk:vector(count) ETV
attr interpolationmode none
attr source packetSentToUpper
attr title "packets passed up, vector(count)"
vector 30 Wireless_6_10.hostE.udp packetReceived:vector(packetBytes) ETV
attr interpolationmode none
attr source packetReceived
attr title "packets received, vector(packetBytes)"
vector 31 Wireless_6_10.hostE.udp passedUpPk:vector(count) ETV
attr interpolationmode none
attr source packetSentToUpper
attr title "packets passed up, vector(count)"
vector 32 Wireless_6_10.hostF.udp packetReceived:vector(packetBytes) ETV
attr interpolationmode none
attr source packetReceived
attr title "packets received, vector(packetBytes)"
vector 33 Wireless_6_10.hostF.udp passedUpPk:vector(count) ETV
attr interpolationmode none
attr source packetSentToUpper
attr title "packets passed up, vector(count)"
vector 34 Wireless_6_10.hostG.udp packetReceived:vector(packetBytes) ETV
attr interpolationmode none
attr source packetReceived
attr title "packets received, vector(packetBytes)"
vector 35 Wireless_6_10.hostG.udp passedUpPk:vector(count) ETV
attr interpolationmode none
attr source packetSentToUpper
attr title "packets passed up, vector(count)"
vector 36 Wireless_6_10.hostB.udp packetSent:vector(packetBytes) ETV
attr interpolationmode none
attr source packetSent
attr title "packets sent, vector(packetBytes)"
vector 37 Wireless_6_10.hostC.udp packetSent:vector(packetBytes) ETV
attr interpolationmode none
attr source packetSent
attr title "packets sent, vector(packetBytes)"
vector 38 Wireless_6_10.hostD.udp packetSent:vector(packetBytes) ETV
attr interpolationmode none
attr source packetSent
attr title "packets sent, vector(packetBytes)"
vector 39 Wireless_6_10.hostE.udp packetSent:vector(packetBytes) ETV
attr interpolationmode none
attr source packetSent
attr title "packets sent, vector(packetBytes)"
vector 40 Wireless_6_10.hostF.udp packetSent:vector(packetBytes) ETV
attr interpolationmode none
attr source packetSent
attr title "packets sent, vector(packetBytes)"
vector 41 Wireless_6_10.hostG.udp packetSent:vector(packetBytes) ETV
attr interpolationmode none
attr source packetSent
attr title "packets sent, vector(packetBytes)"
vector 42 Wireless_6_10.hostB.wlan[0].mac.queue packetPushed:vector(packetBytes) ETV
attr interpolationmode none
attr title "packet pushed, vector(packetBytes)"
vector 43 Wireless_6_10.hostB.wlan[0].mac.queue queueLength:vector ETV
attr interpolationmode sample-hold
attr source "count(packetPushed) - count(packetPopped) - count(packetRemoved) - count(packetDropped)"
attr title "queue length, vector"
vector 44 Wireless_6_10.hostB.wlan[0].mac.queue packetPopped:vector(packetBytes) ETV
attr interpolationmode none
attr title "packet popped, vector(packetBytes)"
vector 45 Wireless_6_10.hostB.wlan[0].mac.queue queueingTime:vector ETV
attr interpolationmode none
attr source queueingTime(packetPopped)
attr title "queueing times, vector"
attr unit s
vector 46 Wireless_6_10.hostC.wlan[0].mac.queue packetPushed:vector(packetBytes) ETV
attr interpolationmode none
attr title "packet pushed, vector(packetBytes)"
vector 47 Wireless_6_10.hostC.wlan[0].mac.queue queueLength:vector ETV
attr interpolationmode sample-hold
attr source "count(packetPushed) - count(packetPopped) - count(packetRemoved) - count(packetDropped)"
attr title "queue length, vector"
vector 48 Wireless_6_10.hostC.wlan[0].mac.queue packetPopped:vector(packetBytes) ETV
attr interpolationmode none
attr title "packet popped, vector(packetBytes)"
vector 49 Wireless_6_10.hostC.wlan[0].mac.queue queueingTime:vector ETV
attr interpolationmode none
attr source queueingTime(packetPopped)
attr title "queueing times, vector"
attr unit s
vector 50 Wireless_6_10.hostD.wlan[0].mac.queue packetPushed:vector(packetBytes) ETV
attr interpolationmode none
attr title "packet pushed, vector(packetBytes)"
vector 51 Wireless_6_10.hostD.wlan[0].mac.queue queueLength:vector ETV
attr interpolationmode sample-hold
attr source "count(packetPushed) - count(packetPopped) - count(packetRemoved) - count(packetDropped)"
attr title "queue length, vector"
vector 52 Wireless_6_10.hostD.wlan[0].mac.queue packetPopped:vector(packetBytes) ETV
attr interpolationmode none
attr title "packet popped, vector(packetBytes)"
vector 53 Wireless_6_10.hostD.wlan[0].mac.queue queueingTime:vector ETV
attr interpolationmode none
attr source queueingTime(packetPopped)
attr title "queueing times, vector"
attr unit s
vector 54 Wireless_6_10.hostE.wlan[0].mac.queue packetPushed:vector(packetBytes) ETV
attr interpolationmode none
attr title "packet pushed, vector(packetBytes)"
vector 55 Wireless_6_10.hostE.wlan[0].mac.queue queueLength:vector ETV
attr interpolationmode sample-hold
attr source "count(packetPushed) - count(packetPopped) - count(packetRemoved) - count(packetDropped)"
attr title "queue length, vector"
vector 56 Wireless_6_10.hostE.wlan[0].mac.queue packetPopped:vector(packetBytes) ETV
attr interpolationmode none
attr title "packet popped, vector(packetBytes)"
vector 57 Wireless_6_10.hostE.wlan[0].mac.queue queueingTime:vector ETV
attr interpolationmode none
attr source queueingTime(packetPopped)
attr title "queueing times, vector"
attr unit s
vector 58 Wireless_6_10.hostF.wlan[0].mac.queue packetPushed:vector(packetBytes) ETV
attr interpolationmode none
attr title "packet pushed, vector(packetBytes)"
vector 59 Wireless_6_10.hostF.wlan[0].mac.queue queueLength:vector ETV
attr interpolationmode sample-hold
attr source "count(packetPushed) - count(packetPopped) - count(packetRemoved) - count(packetDropped)"
attr title "queue length, vector"
vector 60 Wireless_6_10.hostF.wlan[0].mac.queue packetPopped:vector(packetBytes) ETV
attr interpolationmode none
attr title "packet popped, vector(packetBytes)"
vector 61 Wireless_6_10.hostF.wlan[0].mac.queue queueingTime:vector ETV
attr interpolationmode none
attr source queueingTime(packetPopped)
attr title "queueing times, vector"
attr unit s
vector 62 Wireless_6_10.hostG.wlan[0].mac.queue packetPushed:vector(packetBytes) ETV
attr interpolationmode none
attr title "packet pushed, vector(packetBytes)"
vector 63 Wireless_6_10.hostG.wlan[0].mac.queue queueLength:vector ETV
attr interpolationmode sample-hold
attr source "count(packetPushed) - count(packetPopped) - count(packetRemoved) - count(packetDropped)"
attr title "queue length, vector"
vector 64 Wireless_6_10.hostG.wlan[0].mac.queue packetPopped:vector(packetBytes) ETV
attr interpolationmode none
attr title "packet popped, vector(packetBytes)"
vector 65 Wireless_6_10.hostG.wlan[0].mac.queue queueingTime:vector ETV
attr interpolationmode none
attr source queueingTime(packetPopped)
attr title "queueing times, vector"
attr unit s
vector 66 Wireless_6_10.hostD.wlan[0].radio transmissionState:vector ETV
attr interpolationmode sample-hold
attr source transmissionStateChanged
attr title "Radio transmission state, vector"
vector 67 Wireless_6_10.hostG.wlan[0].radio transmissionState:vector ETV
attr interpolationmode sample-hold
attr source transmissionStateChanged
attr title "Radio transmission state, vector"
vector 68 Wireless_6_10.hostA.wlan[0].mac packetDropIncorrectlyReceived:vector(packetBytes) ETV
attr interpolationmode none
attr source packetDropReasonIsIncorrectlyReceived(packetDropped)
attr title "packet drop: incorrectly received, vector(packetBytes)"
vector 69 Wireless_6_10.hostC.wlan[0].mac packetDropNotAddressedToUs:vector(packetBytes) ETV
attr interpolationmode none
attr source packetDropReasonIsNotAddressedToUs(packetDropped)
attr title "packet drop: not addressed to us, vector(packetBytes)"
vector 70 Wireless_6_10.hostE.wlan[0].mac packetDropNotAddressedToUs:vector(packetBytes) ETV
attr interpolationmode none
attr source packetDropReasonIsNotAddressedToUs(packetDropped)
attr title "packet drop: not addressed to us, vector(packetBytes)"
vector 71 Wireless_6_10.hostB.wlan[0].mac packetDropNotAddressedToUs:vector(packetBytes) ETV
attr interpolationmode none
attr source packetDropReasonIsNotAddressedToUs(packetDropped)
attr title "packet drop: not addressed to us, vector(packetBytes)"
vector 72 Wireless_6_10.hostF.wlan[0].mac packetDropNotAddressedToUs:vector(packetBytes) ETV
attr interpolationmode none
attr source packetDropReasonIsNotAddressedToUs(packetDropped)
attr title "packet drop: not addressed to us, vector(packetBytes)"
vector 73 Wireless_6_10.hostF.wlan[0].radio transmissionState:vector ETV
attr interpolationmode sample-hold
attr source transmissionStateChanged
attr title "Radio transmission state, vector"
vector 74 Wireless_6_10.hostG.wlan[0].mac packetDropNotAddressedToUs:vector(packetBytes) ETV
attr interpolationmode none
attr source packetDropReasonIsNotAddressedToUs(packetDropped)
attr title "packet drop: not addressed to us, vector(packetBytes)"
vector 75 Wireless_6_10.hostA.udp passedUpPk:vector(count) ETV
attr interpolationmode none
attr source packetSentToUpper
attr title "packets passed up, vector(count)"
vector 76 Wireless_6_10.hostD.wlan[0].mac packetDropNotAddressedToUs:vector(packetBytes) ETV
attr interpolationmode none
attr source packetDropReasonIsNotAddressedToUs(packetDropped)
attr title "packet drop: not addressed to us, vector(packetBytes)"
vector 77 Wireless_6_10.hostE.wlan[0].radio transmissionState:vector ETV
attr interpolationmode sample-hold
attr source transmissionStateChanged
attr title "Radio transmission state, vector"
vector 78 Wireless_6_10.hostB.wlan[0].radio transmissionState:vector ETV
attr interpolationmode sample-hold
attr source transmissionStateChanged
attr title "Radio transmission state, vector"
vector 79 Wireless_6_10.hostC.wlan[0].radio transmissionState:vector ETV
attr interpolationmode sample-hold
attr source transmissionStateChanged
attr title "Radio transmission state, vector"
0	0	0	0
0	0	0	0
0	0	0	2
0	22	0.00047	3
0	30	0.001016	2
0	150	0.002538124487	3
0	158	0.002756124487	2
0	200	0.003382191199	3
0	208	0.003600191199	2
0	249	0.004266257911	3
0	257	0.004484257911	2
0	297	0.005150324623	3
0	305	0.005368324623	2
0	344	0.006034391335	3
0	352	0.006252391335	2
0	390	0.007818458047	3
0	398	0.008036458047	2
1	0	0	0
1	0	0	0
1	0	0	2
1	225	0.003710224555	3
1	233	0.004256224555	2
2	0	0	0
2	0	0	0
2	0	0	2
2	273	0.004594291267	3
2	281	0.005140291267	2
3	0	0	0
3	0	0	0
3	0	0	2
3	85	0.001126033356	3
3	101	0.001672033356	2
3	320	0.005478357979	3
3	328	0.006024357979	2
4	0	0	0
4	0	0	0
4	0	0	2
4	176	0.002826157843	3
4	184	0.003372157843	2
5	0	0	0
5	0	0	0
5	0	0	2
5	126	0.001982091131	3
5	134	0.002528091131	2
6	0	0	0
6	0	0	0
6	0	0	2
6	86	0.001126033356	3
6	102	0.001672033356	2
6	366	0.007262424691	3
6	374	0.007808424691	2
7	0	0	1
7	22	0.00047	0
7	30	0.001016	1
7	89	0.001126066712	3
7	103	0.001672066712	1
7	128	0.001982124487	3
7	135	0.002528124487	1
7	150	0.002538124487	0
7	158	0.002756124487	1
7	178	0.002826191199	3
7	185	0.003372191199	1
7	200	0.003382191199	0
7	208	0.003600191199	1
7	227	0.003710257911	3
7	234	0.004256257911	1
7	249	0.004266257911	0
7	257	0.004484257911	1
7	275	0.004594324623	3
7	282	0.005140324623	1
7	297	0.005150324623	0
7	305	0.005368324623	1
7	322	0.005478391335	3
7	329	0.006024391335	1
7	344	0.006034391335	0
7	352	0.006252391335	1
7	368	0.007262458047	3
7	375	0.007808458047	1
7	390	0.007818458047	0
7	398	0.008036458047	1
8	0	0	1
8	24	0.000470033356	3
8	31	0.001016033356	1
8	93	0.001126066712	3
8	107	0.001672066712	2
8	114	0.001672091131	1
8	131	0.001982148906	3
8	144	0.002528148906	1
8	152	0.002538157843	3
8	159	0.002756157843	1
8	179	0.002826191199	3
8	186	0.003372191199	1
8	202	0.003382224555	3
8	209	0.003600224555	1
8	225	0.003710224555	0
8	233	0.004256224555	1
8	251	0.004266291267	3
8	258	0.004484291267	1
8	280	0.00459435798	3
8	295	0.00514035798	1
8	299	0.005150357979	3
8	306	0.005368357979	1
8	325	0.005478415754	3
8	338	0.006024415754	1
8	346	0.006034424691	3
8	353	0.006252424691	1
8	369	0.007262458047	3
8	376	0.007808458047	1
8	392	0.007818491403	3
8	399	0.008036491403	1
9	0	0	1
9	25	0.000470033356	3
9	32	0.001016033356	1
9	90	0.001126066712	3
9	104	0.001672066712	2
9	116	0.001672091131	1
9	129	0.001982124487	3
9	136	0.002528124487	1
9	153	0.002538157843	3
9	160	0.002756157843	1
9	181	0.002826215618	3
9	194	0.003372215618	1
9	203	0.003382224555	3
9	210	0.003600224555	1
9	232	0.003710291268	3
9	247	0.004256291268	1
9	252	0.004266291267	3
9	259	0.004484291267	1
9	273	0.004594291267	0
9	281	0.005140291267	1
9	300	0.005150357979	3
9	307	0.005368357979	1
9	323	0.005478391335	3
9	330	0.006024391335	1
9	347	0.006034424691	3
9	354	0.006252424691	1
9	371	0.007262482466	3
9	384	0.007808482466	1
9	393	0.007818491403	3
9	400	0.008036491403	1
10	0	0	1
10	26	0.000470033356	3
10	33	0.001016033356	1
10	85	0.001126033356	0
10	101	0.001672033356	2
10	119	0.001672100069	1
10	132	0.001982148906	3
10	145	0.002528148906	1
10	154	0.002538157843	3
10	161	0.002756157843	1
10	180	0.002826191199	3
10	187	0.003372191199	1
10	204	0.003382224555	3
10	211	0.003600224555	1
10	230	0.00371028233	3
10	243	0.00425628233	1
10	253	0.004266291267	3
10	260	0.004484291267	1
10	276	0.004594324623	3
10	283	0.005140324623	1
10	301	0.005150357979	3
10	308	0.005368357979	1
10	320	0.005478357979	0
10	328	0.006024357979	1
10	348	0.006034424691	3
10	355	0.006252424691	1
10	373	0.007262491404	3
10	388	0.007808491404	1
10	394	0.007818491403	3
10	401	0.008036491403	1
11	0	0	1
11	27	0.000470033356	3
11	34	0.001016033356	1
11	91	0.001126066712	3
11	105	0.001672066712	2
11	117	0.001672091131	1
11	133	0.001982157844	3
11	148	0.002528157844	1
11	155	0.002538157843	3
11	162	0.002756157843	1
11	176	0.002826157843	0
11	184	0.003372157843	1
11	205	0.003382224555	3
11	212	0.003600224555	1
11	228	0.003710257911	3
11	235	0.004256257911	1
11	254	0.004266291267	3
11	261	0.004484291267	1
11	278	0.004594349042	3
11	291	0.005140349042	1
11	302	0.005150357979	3
11	309	0.005368357979	1
11	324	0.005478391335	3
11	331	0.006024391335	1
11	349	0.006034424691	3
11	356	0.006252424691	1
11	372	0.007262482466	3
11	385	0.007808482466	1
11	395	0.007818491403	3
11	402	0.008036491403	1
12	0	0	1
12	28	0.000470033356	3
12	35	0.001016033356	1
12	94	0.001126066712	3
12	108	0.001672066712	2
12	115	0.001672091131	1
12	126	0.001982091131	0
12	134	0.002528091131	1
12	156	0.002538157843	3
12	163	0.002756157843	1
12	183	0.002826224556	3
12	198	0.003372224556	1
12	206	0.003382224555	3
12	213	0.003600224555	1
12	231	0.00371028233	3
12	244	0.00425628233	1
12	255	0.004266291267	3
12	262	0.004484291267	1
12	277	0.004594324623	3
12	284	0.005140324623	1
12	303	0.005150357979	3
12	310	0.005368357979	1
12	326	0.005478415754	3
12	339	0.006024415754	1
12	350	0.006034424691	3
12	357	0.006252424691	1
12	370	0.007262458047	3
12	377	0.007808458047	1
12	396	0.007818491403	3
12	403	0.008036491403	1
13	0	0	1
13	29	0.000470033356	3
13	36	0.001016033356	1
13	86	0.001126033356	0
13	102	0.001672033356	2
13	118	0.001672100069	1
13	130	0.001982124487	3
13	137	0.002528124487	1
13	157	0.002538157843	3
13	164	0.002756157843	1
13	182	0.002826215618	3
13	195	0.003372215618	1
13	207	0.003382224555	3
13	214	0.003600224555	1
13	229	0.003710257911	3
13	236	0.004256257911	1
13	256	0.004266291267	3
13	263	0.004484291267	1
13	279	0.004594349042	3
13	292	0.005140349042	1
13	304	0.005150357979	3
13	311	0.005368357979	1
13	327	0.005478424692	3
13	342	0.006024424692	1
13	351	0.006034424691	3
13	358	0.006252424691	1
13	366	0.007262424691	0
13	374	0.007808424691	1
13	397	0.007818491403	3
13	404	0.008036491403	1
14	3	0	12
15	17	0	32
16	17	0	32
17	18	0	59
18	18	0	1
18	18	0	0
19	18	0	59
20	18	0	0
21	20	0	12
21	142	0.002528124487	12
21	192	0.003372191199	12
21	241	0.004256257911	12
21	289	0.005140324623	12
21	336	0.006024391335	12
21	382	0.007808458047	12
22	20	0	1
23	22	0.00047	1
23	23	0.00047	2
23	30	0.001016	1
23	30	0.001016	0
23	150	0.002538124487	1
23	151	0.002538124487	2
23	158	0.002756124487	1
23	158	0.002756124487	0
23	200	0.003382191199	1
23	201	0.003382191199	2
23	208	0.003600191199	1
23	208	0.003600191199	0
23	249	0.004266257911	1
23	250	0.004266257911	2
23	257	0.004484257911	1
23	257	0.004484257911	0
23	297	0.005150324623	1
23	298	0.005150324623	2
23	305	0.005368324623	1
23	305	0.005368324623	0
23	344	0.006034391335	1
23	345	0.006034391335	2
23	352	0.006252391335	1
23	352	0.006252391335	0
23	390	0.007818458047	1
23	391	0.007818458047	2
23	398	0.008036458047	1
23	398	0.008036458047	0
24	49	0.001016033356	12
25	49	0.001016033356	1
26	50	0.001016033356	12
27	50	0.001016033356	1
28	51	0.001016033356	12
29	51	0.001016033356	1
30	52	0.001016033356	12
31	52	0.001016033356	1
32	53	0.001016033356	12
33	53	0.001016033356	1
34	54	0.001016033356	12
35	54	0.001016033356	1
36	61	0.001016033356	12
37	62	0.001016033356	12
38	63	0.001016033356	12
39	64	0.001016033356	12
40	65	0.001016033356	12
41	66	0.001016033356	12
42	73	0.001016033356	59
43	73	0.001016033356	1
43	73	0.001016033356	0
44	73	0.001016033356	59
45	73	0.001016033356	0
46	74	0.001016033356	59
47	74	0.001016033356	1
47	74	0.001016033356	0
48	74	0.001016033356	59
49	74	0.001016033356	0
50	75	0.001016033356	59
51	75	0.001016033356	1
51	75	0.001016033356	0
52	75	0.001016033356	59
53	75	0.001016033356	0
54	76	0.001016033356	59
55	76	0.001016033356	1
55	76	0.001016033356	0
56	76	0.001016033356	59
57	76	0.001016033356	0
58	77	0.001016033356	59
59	77	0.001016033356	1
59	77	0.001016033356	0
60	77	0.001016033356	59
61	77	0.001016033356	0
62	78	0.001016033356	59
63	78	0.001016033356	1
63	78	0.001016033356	0
64	78	0.001016033356	59
65	78	0.001016033356	0
66	85	0.001126033356	1
66	87	0.001126033356	2
66	101	0.001672033356	1
66	101	0.001672033356	0
66	320	0.005478357979	1
66	321	0.005478357979	2
66	328	0.006024357979	1
66	328	0.006024357979	0
67	86	0.001126033356	1
67	88	0.001126033356	2
67	102	0.001672033356	1
67	102	0.001672033356	0
67	366	0.007262424691	1
67	367	0.007262424691	2
67	374	0.007808424691	1
67	374	0.007808424691	0
68	109	0.001672066712	59
69	110	0.001672066712	59
69	139	0.002528124487	59
69	196	0.003372215618	59
69	248	0.004256291268	59
69	333	0.006024391335	59
69	386	0.007808482466	59
70	111	0.001672066712	59
70	149	0.002528157844	59
70	238	0.004256257911	59
70	293	0.005140349042	59
70	334	0.006024391335	59
70	387	0.007808482466	59
71	112	0.001672066712	59
71	146	0.002528148906	59
71	189	0.003372191199	59
71	296	0.00514035798	59
71	340	0.006024415754	59
71	379	0.007808458047	59
72	113	0.001672066712	59
72	199	0.003372224556	59
72	246	0.00425628233	59
72	287	0.005140324623	59
72	341	0.006024415754	59
72	380	0.007808458047	59
73	126	0.001982091131	1
73	127	0.001982091131	2
73	134	0.002528091131	1
73	134	0.002528091131	0
74	140	0.002528124487	59
74	197	0.003372215618	59
74	239	0.004256257911	59
74	294	0.005140349042	59
74	343	0.006024424692	59
75	142	0.002528124487	1
75	192	0.003372191199	2
75	241	0.004256257911	3
75	289	0.005140324623	4
75	336	0.006024391335	5
75	382	0.007808458047	6
76	147	0.002528148906	59
76	190	0.003372191199	59
76	245	0.00425628233	59
76	286	0.005140324623	59
76	389	0.007808491404	59
77	176	0.002826157843	1
77	177	0.002826157843	2
77	184	0.003372157843	1
77	184	0.003372157843	0
78	225	0.003710224555	1
78	226	0.003710224555	2
78	233	0.004256224555	1
78	233	0.004256224555	0
79	273	0.004594291267	1
79	274	0.004594291267	2
79	281	0.005140291267	1
79	281	0.005140291267	0

