version 2
run Wireless01-139-20200717-17:54:44-14021
attr configname Wireless01
attr datetime 20200717-17:54:44
attr experiment Wireless01
attr inifile omnetpp.ini
attr iterationvars $name=Wireless_6_1
attr iterationvarsf name=Wireless#_6#_1-
attr measurement $name=Wireless_6_1
attr network "${name=WirelessA, Wireless_3_1, Wireless_3_5, Wireless_3_10, Wireless_6_1,Wireless_6_5,Wireless_6_10,Wireless_12_1,Wireless_12_5,Wireless_12_10}"
attr processid 14021
attr repetition 19
attr replication #19
attr resultdir results
attr runnumber 139
attr seedset 139
itervar name Wireless_6_1
param *.hostA.numApps 1
param *.hostA.app[0].typename "\"TDOAApp\""
param *.hostA.app[0].destAddresses "\"Broadcast\""
param *.hostA.app[0].destPort 5000
param *.hostA.app[0].localPort 6000
param *.hostA.app[0].isReceiver false
param *.hostA.app[0].Nome_arquivo "\"Wireless_6_1.csv\""
param *.host*.numApps 1
param *.host*.app[0].typename "\"TDOAApp\""
param *.host*.app[0].localPort 5000
param *.host*.app[0].destPort 6000
param *.host*.app[0].destAddresses "\"hostA\""
param *.host*.app[0].isReceiver true
param *.host*.wlan[0].typename "\"WirelessInterface\""
param *.radioMedium.typename "\"ApskScalarRadioMedium\""
param *.radioMedium.backgroundNoise.power -90dBm
param *.radioMedium.mediumLimitCache.centerFrequency 2GHz
param *.host*.wlan[0].radio.typename "\"ApskScalarRadio\""
param *.host*.wlan[0].radio.centerFrequency 2GHz
param *.host*.wlan[0].radio.bandwidth 2MHz
param *.host*.wlan[0].radio.transmitter.power 1.4mW
param *.host*.wlan[0].radio.transmitter.preambleDuration 10us
param *.host*.wlan[0].radio.transmitter.headerLength 8B
param *.host*.wlan[0].radio.receiver.sensitivity -85dBm
param *.host*.wlan[0].radio.receiver.energyDetection -85dBm
param *.host*.wlan[0].radio.receiver.snirThreshold 4dB
param *.host*.wlan[0].mac.typename "\"CsmaCaMac\""
param *.host*.wlan[0].mac.ackTimeout 300us
param *.host*.wlan[0].mac.useAck true
param *.host*.wlan[0].mac.fullDuplex false
param *.host*.wlan[0].radio.receiver.ignoreInterference true
param *.host*.wlan[0].mac.headerLength 23B
param *.host*.**.bitrate 1Mbps
param *.host*.ipv4.arp.typename "\"GlobalArp\""
param **.ip.limitedBroadcast true

vector 0 Wireless_6_1.hostA.wlan[0].radio radioMode:vector ETV
attr interpolationmode sample-hold
attr source radioModeChanged
attr title "Radio mode, vector"
vector 1 Wireless_6_1.hostB.wlan[0].radio radioMode:vector ETV
attr interpolationmode sample-hold
attr source radioModeChanged
attr title "Radio mode, vector"
vector 2 Wireless_6_1.hostC.wlan[0].radio radioMode:vector ETV
attr interpolationmode sample-hold
attr source radioModeChanged
attr title "Radio mode, vector"
vector 3 Wireless_6_1.hostD.wlan[0].radio radioMode:vector ETV
attr interpolationmode sample-hold
attr source radioModeChanged
attr title "Radio mode, vector"
vector 4 Wireless_6_1.hostE.wlan[0].radio radioMode:vector ETV
attr interpolationmode sample-hold
attr source radioModeChanged
attr title "Radio mode, vector"
vector 5 Wireless_6_1.hostF.wlan[0].radio radioMode:vector ETV
attr interpolationmode sample-hold
attr source radioModeChanged
attr title "Radio mode, vector"
vector 6 Wireless_6_1.hostG.wlan[0].radio radioMode:vector ETV
attr interpolationmode sample-hold
attr source radioModeChanged
attr title "Radio mode, vector"
vector 7 Wireless_6_1.hostA.wlan[0].radio receptionState:vector ETV
attr interpolationmode sample-hold
attr source receptionStateChanged
attr title "Radio reception state, vector"
vector 8 Wireless_6_1.hostB.wlan[0].radio receptionState:vector ETV
attr interpolationmode sample-hold
attr source receptionStateChanged
attr title "Radio reception state, vector"
vector 9 Wireless_6_1.hostC.wlan[0].radio receptionState:vector ETV
attr interpolationmode sample-hold
attr source receptionStateChanged
attr title "Radio reception state, vector"
vector 10 Wireless_6_1.hostD.wlan[0].radio receptionState:vector ETV
attr interpolationmode sample-hold
attr source receptionStateChanged
attr title "Radio reception state, vector"
vector 11 Wireless_6_1.hostE.wlan[0].radio receptionState:vector ETV
attr interpolationmode sample-hold
attr source receptionStateChanged
attr title "Radio reception state, vector"
vector 12 Wireless_6_1.hostF.wlan[0].radio receptionState:vector ETV
attr interpolationmode sample-hold
attr source receptionStateChanged
attr title "Radio reception state, vector"
vector 13 Wireless_6_1.hostG.wlan[0].radio receptionState:vector ETV
attr interpolationmode sample-hold
attr source receptionStateChanged
attr title "Radio reception state, vector"
vector 14 Wireless_6_1.hostA.udp packetSent:vector(packetBytes) ETV
attr interpolationmode none
attr source packetSent
attr title "packets sent, vector(packetBytes)"
vector 15 Wireless_6_1.hostA.lo[0].lo rcvdPkFromHl:vector(packetBytes) ETV
attr interpolationmode none
attr source packetReceivedFromUpper
attr title "packets received from higher layer, vector(packetBytes)"
vector 16 Wireless_6_1.hostA.lo[0].lo passedUpPk:vector(packetBytes) ETV
attr interpolationmode none
attr source packetSentToUpper
attr title "packets passed to higher layer, vector(packetBytes)"
vector 17 Wireless_6_1.hostA.wlan[0].mac.queue packetPushed:vector(packetBytes) ETV
attr interpolationmode none
attr title "packet pushed, vector(packetBytes)"
vector 18 Wireless_6_1.hostA.wlan[0].mac.queue queueLength:vector ETV
attr interpolationmode sample-hold
attr source "count(packetPushed) - count(packetPopped) - count(packetRemoved) - count(packetDropped)"
attr title "queue length, vector"
vector 19 Wireless_6_1.hostA.wlan[0].mac.queue packetPopped:vector(packetBytes) ETV
attr interpolationmode none
attr title "packet popped, vector(packetBytes)"
vector 20 Wireless_6_1.hostA.wlan[0].mac.queue queueingTime:vector ETV
attr interpolationmode none
attr source queueingTime(packetPopped)
attr title "queueing times, vector"
attr unit s
vector 21 Wireless_6_1.hostA.udp packetReceived:vector(packetBytes) ETV
attr interpolationmode none
attr source packetReceived
attr title "packets received, vector(packetBytes)"
vector 22 Wireless_6_1.hostA.udp droppedPkWrongPort:vector(count) ETV
attr interpolationmode none
attr source packetDropReasonIsNoPortFound(packetDropped)
attr title "packets dropped (wrong port), vector(count)"
vector 23 Wireless_6_1.hostA.wlan[0].radio transmissionState:vector ETV
attr interpolationmode sample-hold
attr source transmissionStateChanged
attr title "Radio transmission state, vector"
vector 24 Wireless_6_1.hostB.udp packetReceived:vector(packetBytes) ETV
attr interpolationmode none
attr source packetReceived
attr title "packets received, vector(packetBytes)"
vector 25 Wireless_6_1.hostB.udp passedUpPk:vector(count) ETV
attr interpolationmode none
attr source packetSentToUpper
attr title "packets passed up, vector(count)"
vector 26 Wireless_6_1.hostC.udp packetReceived:vector(packetBytes) ETV
attr interpolationmode none
attr source packetReceived
attr title "packets received, vector(packetBytes)"
vector 27 Wireless_6_1.hostC.udp passedUpPk:vector(count) ETV
attr interpolationmode none
attr source packetSentToUpper
attr title "packets passed up, vector(count)"
vector 28 Wireless_6_1.hostD.udp packetReceived:vector(packetBytes) ETV
attr interpolationmode none
attr source packetReceived
attr title "packets received, vector(packetBytes)"
vector 29 Wireless_6_1.hostD.udp passedUpPk:vector(count) ETV
attr interpolationmode none
attr source packetSentToUpper
attr title "packets passed up, vector(count)"
vector 30 Wireless_6_1.hostE.udp packetReceived:vector(packetBytes) ETV
attr interpolationmode none
attr source packetReceived
attr title "packets received, vector(packetBytes)"
vector 31 Wireless_6_1.hostE.udp passedUpPk:vector(count) ETV
attr interpolationmode none
attr source packetSentToUpper
attr title "packets passed up, vector(count)"
vector 32 Wireless_6_1.hostF.udp packetReceived:vector(packetBytes) ETV
attr interpolationmode none
attr source packetReceived
attr title "packets received, vector(packetBytes)"
vector 33 Wireless_6_1.hostF.udp passedUpPk:vector(count) ETV
attr interpolationmode none
attr source packetSentToUpper
attr title "packets passed up, vector(count)"
vector 34 Wireless_6_1.hostG.udp packetReceived:vector(packetBytes) ETV
attr interpolationmode none
attr source packetReceived
attr title "packets received, vector(packetBytes)"
vector 35 Wireless_6_1.hostG.udp passedUpPk:vector(count) ETV
attr interpolationmode none
attr source packetSentToUpper
attr title "packets passed up, vector(count)"
vector 36 Wireless_6_1.hostB.udp packetSent:vector(packetBytes) ETV
attr interpolationmode none
attr source packetSent
attr title "packets sent, vector(packetBytes)"
vector 37 Wireless_6_1.hostC.udp packetSent:vector(packetBytes) ETV
attr interpolationmode none
attr source packetSent
attr title "packets sent, vector(packetBytes)"
vector 38 Wireless_6_1.hostD.udp packetSent:vector(packetBytes) ETV
attr interpolationmode none
attr source packetSent
attr title "packets sent, vector(packetBytes)"
vector 39 Wireless_6_1.hostE.udp packetSent:vector(packetBytes) ETV
attr interpolationmode none
attr source packetSent
attr title "packets sent, vector(packetBytes)"
vector 40 Wireless_6_1.hostF.udp packetSent:vector(packetBytes) ETV
attr interpolationmode none
attr source packetSent
attr title "packets sent, vector(packetBytes)"
vector 41 Wireless_6_1.hostG.udp packetSent:vector(packetBytes) ETV
attr interpolationmode none
attr source packetSent
attr title "packets sent, vector(packetBytes)"
vector 42 Wireless_6_1.hostB.wlan[0].mac.queue packetPushed:vector(packetBytes) ETV
attr interpolationmode none
attr title "packet pushed, vector(packetBytes)"
vector 43 Wireless_6_1.hostB.wlan[0].mac.queue queueLength:vector ETV
attr interpolationmode sample-hold
attr source "count(packetPushed) - count(packetPopped) - count(packetRemoved) - count(packetDropped)"
attr title "queue length, vector"
vector 44 Wireless_6_1.hostB.wlan[0].mac.queue packetPopped:vector(packetBytes) ETV
attr interpolationmode none
attr title "packet popped, vector(packetBytes)"
vector 45 Wireless_6_1.hostB.wlan[0].mac.queue queueingTime:vector ETV
attr interpolationmode none
attr source queueingTime(packetPopped)
attr title "queueing times, vector"
attr unit s
vector 46 Wireless_6_1.hostC.wlan[0].mac.queue packetPushed:vector(packetBytes) ETV
attr interpolationmode none
attr title "packet pushed, vector(packetBytes)"
vector 47 Wireless_6_1.hostC.wlan[0].mac.queue queueLength:vector ETV
attr interpolationmode sample-hold
attr source "count(packetPushed) - count(packetPopped) - count(packetRemoved) - count(packetDropped)"
attr title "queue length, vector"
vector 48 Wireless_6_1.hostC.wlan[0].mac.queue packetPopped:vector(packetBytes) ETV
attr interpolationmode none
attr title "packet popped, vector(packetBytes)"
vector 49 Wireless_6_1.hostC.wlan[0].mac.queue queueingTime:vector ETV
attr interpolationmode none
attr source queueingTime(packetPopped)
attr title "queueing times, vector"
attr unit s
vector 50 Wireless_6_1.hostD.wlan[0].mac.queue packetPushed:vector(packetBytes) ETV
attr interpolationmode none
attr title "packet pushed, vector(packetBytes)"
vector 51 Wireless_6_1.hostD.wlan[0].mac.queue queueLength:vector ETV
attr interpolationmode sample-hold
attr source "count(packetPushed) - count(packetPopped) - count(packetRemoved) - count(packetDropped)"
attr title "queue length, vector"
vector 52 Wireless_6_1.hostD.wlan[0].mac.queue packetPopped:vector(packetBytes) ETV
attr interpolationmode none
attr title "packet popped, vector(packetBytes)"
vector 53 Wireless_6_1.hostD.wlan[0].mac.queue queueingTime:vector ETV
attr interpolationmode none
attr source queueingTime(packetPopped)
attr title "queueing times, vector"
attr unit s
vector 54 Wireless_6_1.hostE.wlan[0].mac.queue packetPushed:vector(packetBytes) ETV
attr interpolationmode none
attr title "packet pushed, vector(packetBytes)"
vector 55 Wireless_6_1.hostE.wlan[0].mac.queue queueLength:vector ETV
attr interpolationmode sample-hold
attr source "count(packetPushed) - count(packetPopped) - count(packetRemoved) - count(packetDropped)"
attr title "queue length, vector"
vector 56 Wireless_6_1.hostE.wlan[0].mac.queue packetPopped:vector(packetBytes) ETV
attr interpolationmode none
attr title "packet popped, vector(packetBytes)"
vector 57 Wireless_6_1.hostE.wlan[0].mac.queue queueingTime:vector ETV
attr interpolationmode none
attr source queueingTime(packetPopped)
attr title "queueing times, vector"
attr unit s
vector 58 Wireless_6_1.hostF.wlan[0].mac.queue packetPushed:vector(packetBytes) ETV
attr interpolationmode none
attr title "packet pushed, vector(packetBytes)"
vector 59 Wireless_6_1.hostF.wlan[0].mac.queue queueLength:vector ETV
attr interpolationmode sample-hold
attr source "count(packetPushed) - count(packetPopped) - count(packetRemoved) - count(packetDropped)"
attr title "queue length, vector"
vector 60 Wireless_6_1.hostF.wlan[0].mac.queue packetPopped:vector(packetBytes) ETV
attr interpolationmode none
attr title "packet popped, vector(packetBytes)"
vector 61 Wireless_6_1.hostF.wlan[0].mac.queue queueingTime:vector ETV
attr interpolationmode none
attr source queueingTime(packetPopped)
attr title "queueing times, vector"
attr unit s
vector 62 Wireless_6_1.hostG.wlan[0].mac.queue packetPushed:vector(packetBytes) ETV
attr interpolationmode none
attr title "packet pushed, vector(packetBytes)"
vector 63 Wireless_6_1.hostG.wlan[0].mac.queue queueLength:vector ETV
attr interpolationmode sample-hold
attr source "count(packetPushed) - count(packetPopped) - count(packetRemoved) - count(packetDropped)"
attr title "queue length, vector"
vector 64 Wireless_6_1.hostG.wlan[0].mac.queue packetPopped:vector(packetBytes) ETV
attr interpolationmode none
attr title "packet popped, vector(packetBytes)"
vector 65 Wireless_6_1.hostG.wlan[0].mac.queue queueingTime:vector ETV
attr interpolationmode none
attr source queueingTime(packetPopped)
attr title "queueing times, vector"
attr unit s
vector 66 Wireless_6_1.hostB.wlan[0].radio transmissionState:vector ETV
attr interpolationmode sample-hold
attr source transmissionStateChanged
attr title "Radio transmission state, vector"
vector 67 Wireless_6_1.hostE.wlan[0].mac packetDropNotAddressedToUs:vector(packetBytes) ETV
attr interpolationmode none
attr source packetDropReasonIsNotAddressedToUs(packetDropped)
attr title "packet drop: not addressed to us, vector(packetBytes)"
vector 68 Wireless_6_1.hostG.wlan[0].mac packetDropNotAddressedToUs:vector(packetBytes) ETV
attr interpolationmode none
attr source packetDropReasonIsNotAddressedToUs(packetDropped)
attr title "packet drop: not addressed to us, vector(packetBytes)"
vector 69 Wireless_6_1.hostA.udp passedUpPk:vector(count) ETV
attr interpolationmode none
attr source packetSentToUpper
attr title "packets passed up, vector(count)"
vector 70 Wireless_6_1.hostD.wlan[0].mac packetDropNotAddressedToUs:vector(packetBytes) ETV
attr interpolationmode none
attr source packetDropReasonIsNotAddressedToUs(packetDropped)
attr title "packet drop: not addressed to us, vector(packetBytes)"
vector 71 Wireless_6_1.hostF.wlan[0].mac packetDropNotAddressedToUs:vector(packetBytes) ETV
attr interpolationmode none
attr source packetDropReasonIsNotAddressedToUs(packetDropped)
attr title "packet drop: not addressed to us, vector(packetBytes)"
vector 72 Wireless_6_1.hostC.wlan[0].mac packetDropNotAddressedToUs:vector(packetBytes) ETV
attr interpolationmode none
attr source packetDropReasonIsNotAddressedToUs(packetDropped)
attr title "packet drop: not addressed to us, vector(packetBytes)"
vector 73 Wireless_6_1.hostC.wlan[0].radio transmissionState:vector ETV
attr interpolationmode sample-hold
attr source transmissionStateChanged
attr title "Radio transmission state, vector"
vector 74 Wireless_6_1.hostB.wlan[0].mac packetDropNotAddressedToUs:vector(packetBytes) ETV
attr interpolationmode none
attr source packetDropReasonIsNotAddressedToUs(packetDropped)
attr title "packet drop: not addressed to us, vector(packetBytes)"
vector 75 Wireless_6_1.hostF.wlan[0].radio transmissionState:vector ETV
attr interpolationmode sample-hold
attr source transmissionStateChanged
attr title "Radio transmission state, vector"
vector 76 Wireless_6_1.hostE.wlan[0].radio transmissionState:vector ETV
attr interpolationmode sample-hold
attr source transmissionStateChanged
attr title "Radio transmission state, vector"
vector 77 Wireless_6_1.hostD.wlan[0].radio transmissionState:vector ETV
attr interpolationmode sample-hold
attr source transmissionStateChanged
attr title "Radio transmission state, vector"
vector 78 Wireless_6_1.hostG.wlan[0].radio transmissionState:vector ETV
attr interpolationmode sample-hold
attr source transmissionStateChanged
attr title "Radio transmission state, vector"
0	0	0	0
0	0	0	0
0	0	0	2
0	22	0.00049	3
0	30	0.001036	2
0	109	0.001642006672	3
0	117	0.001860006672	2
0	159	0.002526013344	3
0	167	0.002744013344	2
0	208	0.003410020016	3
0	216	0.003628020016	2
0	256	0.004434026688	3
0	264	0.004652026688	2
0	303	0.00527803336	3
0	311	0.00549603336	2
0	349	0.006262040032	3
0	357	0.006480040032	2
1	0	0	0
1	0	0	0
1	0	0	2
1	85	0.001086003336	3
1	93	0.001632003336	2
2	0	0	0
2	0	0	0
2	0	0	2
2	135	0.001970010008	3
2	143	0.002516010008	2
3	0	0	0
3	0	0	0
3	0	0	2
3	279	0.004722030024	3
3	287	0.005268030024	2
4	0	0	0
4	0	0	0
4	0	0	2
4	232	0.003878023352	3
4	240	0.004424023352	2
5	0	0	0
5	0	0	0
5	0	0	2
5	184	0.00285401668	3
5	192	0.00340001668	2
6	0	0	0
6	0	0	0
6	0	0	2
6	325	0.005706036696	3
6	333	0.006252036696	2
7	0	0	1
7	22	0.00049	0
7	30	0.001036	1
7	87	0.001086006672	3
7	94	0.001632006672	1
7	109	0.001642006672	0
7	117	0.001860006672	1
7	137	0.001970013344	3
7	144	0.002516013344	1
7	159	0.002526013344	0
7	167	0.002744013344	1
7	186	0.002854020016	3
7	193	0.003400020016	1
7	208	0.003410020016	0
7	216	0.003628020016	1
7	234	0.003878026688	3
7	241	0.004424026688	1
7	256	0.004434026688	0
7	264	0.004652026688	1
7	281	0.00472203336	3
7	288	0.00526803336	1
7	303	0.00527803336	0
7	311	0.00549603336	1
7	327	0.005706040032	3
7	334	0.006252040032	1
7	349	0.006262040032	0
7	357	0.006480040032	1
8	0	0	1
8	24	0.000490003336	3
8	31	0.001036003336	1
8	85	0.001086003336	0
8	93	0.001632003336	1
8	111	0.001642010008	3
8	118	0.001860010008	1
8	142	0.001970016679	3
8	157	0.002516016679	1
8	161	0.00252601668	3
8	168	0.00274401668	1
8	189	0.002854022457	3
8	202	0.003400022457	1
8	210	0.003410023352	3
8	217	0.003628023352	1
8	235	0.003878026688	3
8	242	0.004424026688	1
8	258	0.004434030024	3
8	265	0.004652030024	1
8	284	0.004722035801	3
8	297	0.005268035801	1
8	305	0.005278036696	3
8	312	0.005496036696	1
8	328	0.005706040032	3
8	335	0.006252040032	1
8	351	0.006262043368	3
8	358	0.006480043368	1
9	0	0	1
9	25	0.000490003336	3
9	32	0.001036003336	1
9	92	0.001086010007	3
9	107	0.001632010007	1
9	112	0.001642010008	3
9	119	0.001860010008	1
9	135	0.001970010008	0
9	143	0.002516010008	1
9	162	0.00252601668	3
9	169	0.00274401668	1
9	187	0.002854020016	3
9	194	0.003400020016	1
9	211	0.003410023352	3
9	218	0.003628023352	1
9	237	0.003878029129	3
9	250	0.004424029129	1
9	259	0.004434030024	3
9	266	0.004652030024	1
9	282	0.00472203336	3
9	289	0.00526803336	1
9	306	0.005278036696	3
9	313	0.005496036696	1
9	330	0.005706042473	3
9	343	0.006252042473	1
9	352	0.006262043368	3
9	359	0.006480043368	1
10	0	0	1
10	26	0.000490003336	3
10	33	0.001036003336	1
10	90	0.001086009113	3
10	103	0.001632009113	1
10	113	0.001642010008	3
10	120	0.001860010008	1
10	138	0.001970013344	3
10	145	0.002516013344	1
10	163	0.00252601668	3
10	170	0.00274401668	1
10	190	0.002854022457	3
10	203	0.003400022457	1
10	212	0.003410023352	3
10	219	0.003628023352	1
10	236	0.003878026688	3
10	243	0.004424026688	1
10	260	0.004434030024	3
10	267	0.004652030024	1
10	279	0.004722030024	0
10	287	0.005268030024	1
10	307	0.005278036696	3
10	314	0.005496036696	1
10	332	0.005706043367	3
10	347	0.006252043367	1
10	353	0.006262043368	3
10	360	0.006480043368	1
11	0	0	1
11	27	0.000490003336	3
11	34	0.001036003336	1
11	88	0.001086006672	3
11	95	0.001632006672	1
11	114	0.001642010008	3
11	121	0.001860010008	1
11	140	0.001970015785	3
11	153	0.002516015785	1
11	164	0.00252601668	3
11	171	0.00274401668	1
11	191	0.002854023351	3
11	206	0.003400023351	1
11	213	0.003410023352	3
11	220	0.003628023352	1
11	232	0.003878023352	0
11	240	0.004424023352	1
11	261	0.004434030024	3
11	268	0.004652030024	1
11	283	0.00472203336	3
11	290	0.00526803336	1
11	308	0.005278036696	3
11	315	0.005496036696	1
11	331	0.005706042473	3
11	344	0.006252042473	1
11	354	0.006262043368	3
11	361	0.006480043368	1
12	0	0	1
12	28	0.000490003336	3
12	35	0.001036003336	1
12	91	0.001086009113	3
12	104	0.001632009113	1
12	115	0.001642010008	3
12	122	0.001860010008	1
12	139	0.001970013344	3
12	146	0.002516013344	1
12	165	0.00252601668	3
12	172	0.00274401668	1
12	184	0.00285401668	0
12	192	0.00340001668	1
12	214	0.003410023352	3
12	221	0.003628023352	1
12	239	0.003878030023	3
12	254	0.004424030023	1
12	262	0.004434030024	3
12	269	0.004652030024	1
12	285	0.004722035801	3
12	298	0.005268035801	1
12	309	0.005278036696	3
12	316	0.005496036696	1
12	329	0.005706040032	3
12	336	0.006252040032	1
12	355	0.006262043368	3
12	362	0.006480043368	1
13	0	0	1
13	29	0.000490003336	3
13	36	0.001036003336	1
13	89	0.001086006672	3
13	96	0.001632006672	1
13	116	0.001642010008	3
13	123	0.001860010008	1
13	141	0.001970015785	3
13	154	0.002516015785	1
13	166	0.00252601668	3
13	173	0.00274401668	1
13	188	0.002854020016	3
13	195	0.003400020016	1
13	215	0.003410023352	3
13	222	0.003628023352	1
13	238	0.003878029129	3
13	251	0.004424029129	1
13	263	0.004434030024	3
13	270	0.004652030024	1
13	286	0.004722036695	3
13	301	0.005268036695	1
13	310	0.005278036696	3
13	317	0.005496036696	1
13	325	0.005706036696	0
13	333	0.006252036696	1
13	356	0.006262043368	3
13	363	0.006480043368	1
14	3	0	12
15	17	0	32
16	17	0	32
17	18	0	59
18	18	0	1
18	18	0	0
19	18	0	59
20	18	0	0
21	20	0	12
21	101	0.001632006672	12
21	151	0.002516013344	12
21	200	0.003400020016	12
21	248	0.004424026688	12
21	295	0.00526803336	12
21	341	0.006252040032	12
22	20	0	1
23	22	0.00049	1
23	23	0.00049	2
23	30	0.001036	1
23	30	0.001036	0
23	109	0.001642006672	1
23	110	0.001642006672	2
23	117	0.001860006672	1
23	117	0.001860006672	0
23	159	0.002526013344	1
23	160	0.002526013344	2
23	167	0.002744013344	1
23	167	0.002744013344	0
23	208	0.003410020016	1
23	209	0.003410020016	2
23	216	0.003628020016	1
23	216	0.003628020016	0
23	256	0.004434026688	1
23	257	0.004434026688	2
23	264	0.004652026688	1
23	264	0.004652026688	0
23	303	0.00527803336	1
23	304	0.00527803336	2
23	311	0.00549603336	1
23	311	0.00549603336	0
23	349	0.006262040032	1
23	350	0.006262040032	2
23	357	0.006480040032	1
23	357	0.006480040032	0
24	49	0.001036003336	12
25	49	0.001036003336	1
26	50	0.001036003336	12
27	50	0.001036003336	1
28	51	0.001036003336	12
29	51	0.001036003336	1
30	52	0.001036003336	12
31	52	0.001036003336	1
32	53	0.001036003336	12
33	53	0.001036003336	1
34	54	0.001036003336	12
35	54	0.001036003336	1
36	61	0.001036003336	12
37	62	0.001036003336	12
38	63	0.001036003336	12
39	64	0.001036003336	12
40	65	0.001036003336	12
41	66	0.001036003336	12
42	73	0.001036003336	59
43	73	0.001036003336	1
43	73	0.001036003336	0
44	73	0.001036003336	59
45	73	0.001036003336	0
46	74	0.001036003336	59
47	74	0.001036003336	1
47	74	0.001036003336	0
48	74	0.001036003336	59
49	74	0.001036003336	0
50	75	0.001036003336	59
51	75	0.001036003336	1
51	75	0.001036003336	0
52	75	0.001036003336	59
53	75	0.001036003336	0
54	76	0.001036003336	59
55	76	0.001036003336	1
55	76	0.001036003336	0
56	76	0.001036003336	59
57	76	0.001036003336	0
58	77	0.001036003336	59
59	77	0.001036003336	1
59	77	0.001036003336	0
60	77	0.001036003336	59
61	77	0.001036003336	0
62	78	0.001036003336	59
63	78	0.001036003336	1
63	78	0.001036003336	0
64	78	0.001036003336	59
65	78	0.001036003336	0
66	85	0.001086003336	1
66	86	0.001086003336	2
66	93	0.001632003336	1
66	93	0.001632003336	0
67	98	0.001632006672	59
67	155	0.002516015785	59
67	207	0.003400023351	59
67	293	0.00526803336	59
67	346	0.006252042473	59
68	99	0.001632006672	59
68	156	0.002516015785	59
68	198	0.003400020016	59
68	253	0.004424029129	59
68	302	0.005268036695	59
69	101	0.001632006672	1
69	151	0.002516013344	2
69	200	0.003400020016	3
69	248	0.004424026688	4
69	295	0.00526803336	5
69	341	0.006252040032	6
70	105	0.001632009113	59
70	148	0.002516013344	59
70	205	0.003400022457	59
70	246	0.004424026688	59
70	348	0.006252043367	59
71	106	0.001632009113	59
71	149	0.002516013344	59
71	255	0.004424030023	59
71	300	0.005268035801	59
71	339	0.006252040032	59
72	108	0.001632010007	59
72	197	0.003400020016	59
72	252	0.004424029129	59
72	292	0.00526803336	59
72	345	0.006252042473	59
73	135	0.001970010008	1
73	136	0.001970010008	2
73	143	0.002516010008	1
73	143	0.002516010008	0
74	158	0.002516016679	59
74	204	0.003400022457	59
74	245	0.004424026688	59
74	299	0.005268035801	59
74	338	0.006252040032	59
75	184	0.00285401668	1
75	185	0.00285401668	2
75	192	0.00340001668	1
75	192	0.00340001668	0
76	232	0.003878023352	1
76	233	0.003878023352	2
76	240	0.004424023352	1
76	240	0.004424023352	0
77	279	0.004722030024	1
77	280	0.004722030024	2
77	287	0.005268030024	1
77	287	0.005268030024	0
78	325	0.005706036696	1
78	326	0.005706036696	2
78	333	0.006252036696	1
78	333	0.006252036696	0

