version 2
run Wireless01-149-20200717-17:33:05-11850
attr configname Wireless01
attr datetime 20200717-17:33:05
attr experiment Wireless01
attr inifile omnetpp.ini
attr iterationvars $name=Wireless_6_1
attr iterationvarsf name=Wireless#_6#_1-
attr measurement $name=Wireless_6_1
attr network "${name=WirelessA, Wireless_3_1, Wireless_3_5, Wireless_3_10, Wireless_6_1,Wireless_6_5,Wireless_6_10,Wireless_12_1,Wireless_12_5,Wireless_12_10}"
attr processid 11850
attr repetition 29
attr replication #29
attr resultdir results
attr runnumber 149
attr seedset 149
itervar name Wireless_6_1
param *.hostA.numApps 1
param *.hostA.app[0].typename "\"TDOAApp\""
param *.hostA.app[0].destAddresses "\"Broadcast\""
param *.hostA.app[0].destPort 5000
param *.hostA.app[0].localPort 6000
param *.hostA.app[0].isReceiver false
param *.hostA.app[0].Nome_arquivo "\"Wireless_6_1.csv\""
param *.host*.numApps 1
param *.host*.app[0].typename "\"TDOAApp\""
param *.host*.app[0].localPort 5000
param *.host*.app[0].destPort 6000
param *.host*.app[0].destAddresses "\"hostA\""
param *.host*.app[0].isReceiver true
param *.host*.wlan[0].typename "\"WirelessInterface\""
param *.radioMedium.typename "\"ApskScalarRadioMedium\""
param *.radioMedium.backgroundNoise.power -90dBm
param *.radioMedium.mediumLimitCache.centerFrequency 2GHz
param *.host*.wlan[0].radio.typename "\"ApskScalarRadio\""
param *.host*.wlan[0].radio.centerFrequency 2GHz
param *.host*.wlan[0].radio.bandwidth 2MHz
param *.host*.wlan[0].radio.transmitter.power 1.4mW
param *.host*.wlan[0].radio.transmitter.preambleDuration 10us
param *.host*.wlan[0].radio.transmitter.headerLength 8B
param *.host*.wlan[0].radio.receiver.sensitivity -85dBm
param *.host*.wlan[0].radio.receiver.energyDetection -85dBm
param *.host*.wlan[0].radio.receiver.snirThreshold 4dB
param *.host*.wlan[0].mac.typename "\"CsmaCaMac\""
param *.host*.wlan[0].mac.ackTimeout 300us
param *.host*.wlan[0].mac.useAck true
param *.host*.wlan[0].mac.fullDuplex false
param *.host*.wlan[0].radio.receiver.ignoreInterference true
param *.host*.wlan[0].mac.headerLength 23B
param *.host*.**.bitrate 1Mbps
param *.host*.ipv4.arp.typename "\"GlobalArp\""
param **.ip.limitedBroadcast true

vector 0 Wireless_6_1.hostA.wlan[0].radio radioMode:vector ETV
attr interpolationmode sample-hold
attr source radioModeChanged
attr title "Radio mode, vector"
vector 1 Wireless_6_1.hostB.wlan[0].radio radioMode:vector ETV
attr interpolationmode sample-hold
attr source radioModeChanged
attr title "Radio mode, vector"
vector 2 Wireless_6_1.hostC.wlan[0].radio radioMode:vector ETV
attr interpolationmode sample-hold
attr source radioModeChanged
attr title "Radio mode, vector"
vector 3 Wireless_6_1.hostD.wlan[0].radio radioMode:vector ETV
attr interpolationmode sample-hold
attr source radioModeChanged
attr title "Radio mode, vector"
vector 4 Wireless_6_1.hostE.wlan[0].radio radioMode:vector ETV
attr interpolationmode sample-hold
attr source radioModeChanged
attr title "Radio mode, vector"
vector 5 Wireless_6_1.hostF.wlan[0].radio radioMode:vector ETV
attr interpolationmode sample-hold
attr source radioModeChanged
attr title "Radio mode, vector"
vector 6 Wireless_6_1.hostG.wlan[0].radio radioMode:vector ETV
attr interpolationmode sample-hold
attr source radioModeChanged
attr title "Radio mode, vector"
vector 7 Wireless_6_1.hostA.wlan[0].radio receptionState:vector ETV
attr interpolationmode sample-hold
attr source receptionStateChanged
attr title "Radio reception state, vector"
vector 8 Wireless_6_1.hostB.wlan[0].radio receptionState:vector ETV
attr interpolationmode sample-hold
attr source receptionStateChanged
attr title "Radio reception state, vector"
vector 9 Wireless_6_1.hostC.wlan[0].radio receptionState:vector ETV
attr interpolationmode sample-hold
attr source receptionStateChanged
attr title "Radio reception state, vector"
vector 10 Wireless_6_1.hostD.wlan[0].radio receptionState:vector ETV
attr interpolationmode sample-hold
attr source receptionStateChanged
attr title "Radio reception state, vector"
vector 11 Wireless_6_1.hostE.wlan[0].radio receptionState:vector ETV
attr interpolationmode sample-hold
attr source receptionStateChanged
attr title "Radio reception state, vector"
vector 12 Wireless_6_1.hostF.wlan[0].radio receptionState:vector ETV
attr interpolationmode sample-hold
attr source receptionStateChanged
attr title "Radio reception state, vector"
vector 13 Wireless_6_1.hostG.wlan[0].radio receptionState:vector ETV
attr interpolationmode sample-hold
attr source receptionStateChanged
attr title "Radio reception state, vector"
vector 14 Wireless_6_1.hostA.udp packetSent:vector(packetBytes) ETV
attr interpolationmode none
attr source packetSent
attr title "packets sent, vector(packetBytes)"
vector 15 Wireless_6_1.hostA.lo[0].lo rcvdPkFromHl:vector(packetBytes) ETV
attr interpolationmode none
attr source packetReceivedFromUpper
attr title "packets received from higher layer, vector(packetBytes)"
vector 16 Wireless_6_1.hostA.lo[0].lo passedUpPk:vector(packetBytes) ETV
attr interpolationmode none
attr source packetSentToUpper
attr title "packets passed to higher layer, vector(packetBytes)"
vector 17 Wireless_6_1.hostA.wlan[0].mac.queue packetPushed:vector(packetBytes) ETV
attr interpolationmode none
attr title "packet pushed, vector(packetBytes)"
vector 18 Wireless_6_1.hostA.wlan[0].mac.queue queueLength:vector ETV
attr interpolationmode sample-hold
attr source "count(packetPushed) - count(packetPopped) - count(packetRemoved) - count(packetDropped)"
attr title "queue length, vector"
vector 19 Wireless_6_1.hostA.wlan[0].mac.queue packetPopped:vector(packetBytes) ETV
attr interpolationmode none
attr title "packet popped, vector(packetBytes)"
vector 20 Wireless_6_1.hostA.wlan[0].mac.queue queueingTime:vector ETV
attr interpolationmode none
attr source queueingTime(packetPopped)
attr title "queueing times, vector"
attr unit s
vector 21 Wireless_6_1.hostA.udp packetReceived:vector(packetBytes) ETV
attr interpolationmode none
attr source packetReceived
attr title "packets received, vector(packetBytes)"
vector 22 Wireless_6_1.hostA.udp droppedPkWrongPort:vector(count) ETV
attr interpolationmode none
attr source packetDropReasonIsNoPortFound(packetDropped)
attr title "packets dropped (wrong port), vector(count)"
vector 23 Wireless_6_1.hostA.wlan[0].radio transmissionState:vector ETV
attr interpolationmode sample-hold
attr source transmissionStateChanged
attr title "Radio transmission state, vector"
vector 24 Wireless_6_1.hostB.udp packetReceived:vector(packetBytes) ETV
attr interpolationmode none
attr source packetReceived
attr title "packets received, vector(packetBytes)"
vector 25 Wireless_6_1.hostB.udp passedUpPk:vector(count) ETV
attr interpolationmode none
attr source packetSentToUpper
attr title "packets passed up, vector(count)"
vector 26 Wireless_6_1.hostC.udp packetReceived:vector(packetBytes) ETV
attr interpolationmode none
attr source packetReceived
attr title "packets received, vector(packetBytes)"
vector 27 Wireless_6_1.hostC.udp passedUpPk:vector(count) ETV
attr interpolationmode none
attr source packetSentToUpper
attr title "packets passed up, vector(count)"
vector 28 Wireless_6_1.hostD.udp packetReceived:vector(packetBytes) ETV
attr interpolationmode none
attr source packetReceived
attr title "packets received, vector(packetBytes)"
vector 29 Wireless_6_1.hostD.udp passedUpPk:vector(count) ETV
attr interpolationmode none
attr source packetSentToUpper
attr title "packets passed up, vector(count)"
vector 30 Wireless_6_1.hostE.udp packetReceived:vector(packetBytes) ETV
attr interpolationmode none
attr source packetReceived
attr title "packets received, vector(packetBytes)"
vector 31 Wireless_6_1.hostE.udp passedUpPk:vector(count) ETV
attr interpolationmode none
attr source packetSentToUpper
attr title "packets passed up, vector(count)"
vector 32 Wireless_6_1.hostF.udp packetReceived:vector(packetBytes) ETV
attr interpolationmode none
attr source packetReceived
attr title "packets received, vector(packetBytes)"
vector 33 Wireless_6_1.hostF.udp passedUpPk:vector(count) ETV
attr interpolationmode none
attr source packetSentToUpper
attr title "packets passed up, vector(count)"
vector 34 Wireless_6_1.hostG.udp packetReceived:vector(packetBytes) ETV
attr interpolationmode none
attr source packetReceived
attr title "packets received, vector(packetBytes)"
vector 35 Wireless_6_1.hostG.udp passedUpPk:vector(count) ETV
attr interpolationmode none
attr source packetSentToUpper
attr title "packets passed up, vector(count)"
vector 36 Wireless_6_1.hostB.udp packetSent:vector(packetBytes) ETV
attr interpolationmode none
attr source packetSent
attr title "packets sent, vector(packetBytes)"
vector 37 Wireless_6_1.hostC.udp packetSent:vector(packetBytes) ETV
attr interpolationmode none
attr source packetSent
attr title "packets sent, vector(packetBytes)"
vector 38 Wireless_6_1.hostD.udp packetSent:vector(packetBytes) ETV
attr interpolationmode none
attr source packetSent
attr title "packets sent, vector(packetBytes)"
vector 39 Wireless_6_1.hostE.udp packetSent:vector(packetBytes) ETV
attr interpolationmode none
attr source packetSent
attr title "packets sent, vector(packetBytes)"
vector 40 Wireless_6_1.hostF.udp packetSent:vector(packetBytes) ETV
attr interpolationmode none
attr source packetSent
attr title "packets sent, vector(packetBytes)"
vector 41 Wireless_6_1.hostG.udp packetSent:vector(packetBytes) ETV
attr interpolationmode none
attr source packetSent
attr title "packets sent, vector(packetBytes)"
vector 42 Wireless_6_1.hostB.wlan[0].mac.queue packetPushed:vector(packetBytes) ETV
attr interpolationmode none
attr title "packet pushed, vector(packetBytes)"
vector 43 Wireless_6_1.hostB.wlan[0].mac.queue queueLength:vector ETV
attr interpolationmode sample-hold
attr source "count(packetPushed) - count(packetPopped) - count(packetRemoved) - count(packetDropped)"
attr title "queue length, vector"
vector 44 Wireless_6_1.hostB.wlan[0].mac.queue packetPopped:vector(packetBytes) ETV
attr interpolationmode none
attr title "packet popped, vector(packetBytes)"
vector 45 Wireless_6_1.hostB.wlan[0].mac.queue queueingTime:vector ETV
attr interpolationmode none
attr source queueingTime(packetPopped)
attr title "queueing times, vector"
attr unit s
vector 46 Wireless_6_1.hostC.wlan[0].mac.queue packetPushed:vector(packetBytes) ETV
attr interpolationmode none
attr title "packet pushed, vector(packetBytes)"
vector 47 Wireless_6_1.hostC.wlan[0].mac.queue queueLength:vector ETV
attr interpolationmode sample-hold
attr source "count(packetPushed) - count(packetPopped) - count(packetRemoved) - count(packetDropped)"
attr title "queue length, vector"
vector 48 Wireless_6_1.hostC.wlan[0].mac.queue packetPopped:vector(packetBytes) ETV
attr interpolationmode none
attr title "packet popped, vector(packetBytes)"
vector 49 Wireless_6_1.hostC.wlan[0].mac.queue queueingTime:vector ETV
attr interpolationmode none
attr source queueingTime(packetPopped)
attr title "queueing times, vector"
attr unit s
vector 50 Wireless_6_1.hostD.wlan[0].mac.queue packetPushed:vector(packetBytes) ETV
attr interpolationmode none
attr title "packet pushed, vector(packetBytes)"
vector 51 Wireless_6_1.hostD.wlan[0].mac.queue queueLength:vector ETV
attr interpolationmode sample-hold
attr source "count(packetPushed) - count(packetPopped) - count(packetRemoved) - count(packetDropped)"
attr title "queue length, vector"
vector 52 Wireless_6_1.hostD.wlan[0].mac.queue packetPopped:vector(packetBytes) ETV
attr interpolationmode none
attr title "packet popped, vector(packetBytes)"
vector 53 Wireless_6_1.hostD.wlan[0].mac.queue queueingTime:vector ETV
attr interpolationmode none
attr source queueingTime(packetPopped)
attr title "queueing times, vector"
attr unit s
vector 54 Wireless_6_1.hostE.wlan[0].mac.queue packetPushed:vector(packetBytes) ETV
attr interpolationmode none
attr title "packet pushed, vector(packetBytes)"
vector 55 Wireless_6_1.hostE.wlan[0].mac.queue queueLength:vector ETV
attr interpolationmode sample-hold
attr source "count(packetPushed) - count(packetPopped) - count(packetRemoved) - count(packetDropped)"
attr title "queue length, vector"
vector 56 Wireless_6_1.hostE.wlan[0].mac.queue packetPopped:vector(packetBytes) ETV
attr interpolationmode none
attr title "packet popped, vector(packetBytes)"
vector 57 Wireless_6_1.hostE.wlan[0].mac.queue queueingTime:vector ETV
attr interpolationmode none
attr source queueingTime(packetPopped)
attr title "queueing times, vector"
attr unit s
vector 58 Wireless_6_1.hostF.wlan[0].mac.queue packetPushed:vector(packetBytes) ETV
attr interpolationmode none
attr title "packet pushed, vector(packetBytes)"
vector 59 Wireless_6_1.hostF.wlan[0].mac.queue queueLength:vector ETV
attr interpolationmode sample-hold
attr source "count(packetPushed) - count(packetPopped) - count(packetRemoved) - count(packetDropped)"
attr title "queue length, vector"
vector 60 Wireless_6_1.hostF.wlan[0].mac.queue packetPopped:vector(packetBytes) ETV
attr interpolationmode none
attr title "packet popped, vector(packetBytes)"
vector 61 Wireless_6_1.hostF.wlan[0].mac.queue queueingTime:vector ETV
attr interpolationmode none
attr source queueingTime(packetPopped)
attr title "queueing times, vector"
attr unit s
vector 62 Wireless_6_1.hostG.wlan[0].mac.queue packetPushed:vector(packetBytes) ETV
attr interpolationmode none
attr title "packet pushed, vector(packetBytes)"
vector 63 Wireless_6_1.hostG.wlan[0].mac.queue queueLength:vector ETV
attr interpolationmode sample-hold
attr source "count(packetPushed) - count(packetPopped) - count(packetRemoved) - count(packetDropped)"
attr title "queue length, vector"
vector 64 Wireless_6_1.hostG.wlan[0].mac.queue packetPopped:vector(packetBytes) ETV
attr interpolationmode none
attr title "packet popped, vector(packetBytes)"
vector 65 Wireless_6_1.hostG.wlan[0].mac.queue queueingTime:vector ETV
attr interpolationmode none
attr source queueingTime(packetPopped)
attr title "queueing times, vector"
attr unit s
vector 66 Wireless_6_1.hostC.wlan[0].radio transmissionState:vector ETV
attr interpolationmode sample-hold
attr source transmissionStateChanged
attr title "Radio transmission state, vector"
vector 67 Wireless_6_1.hostD.wlan[0].radio transmissionState:vector ETV
attr interpolationmode sample-hold
attr source transmissionStateChanged
attr title "Radio transmission state, vector"
vector 68 Wireless_6_1.hostA.wlan[0].mac packetDropIncorrectlyReceived:vector(packetBytes) ETV
attr interpolationmode none
attr source packetDropReasonIsIncorrectlyReceived(packetDropped)
attr title "packet drop: incorrectly received, vector(packetBytes)"
vector 69 Wireless_6_1.hostF.wlan[0].mac packetDropNotAddressedToUs:vector(packetBytes) ETV
attr interpolationmode none
attr source packetDropReasonIsNotAddressedToUs(packetDropped)
attr title "packet drop: not addressed to us, vector(packetBytes)"
vector 70 Wireless_6_1.hostE.wlan[0].mac packetDropNotAddressedToUs:vector(packetBytes) ETV
attr interpolationmode none
attr source packetDropReasonIsNotAddressedToUs(packetDropped)
attr title "packet drop: not addressed to us, vector(packetBytes)"
vector 71 Wireless_6_1.hostG.wlan[0].mac packetDropIncorrectlyReceived:vector(packetBytes) ETV
attr interpolationmode none
attr source packetDropReasonIsIncorrectlyReceived(packetDropped)
attr title "packet drop: incorrectly received, vector(packetBytes)"
vector 72 Wireless_6_1.hostB.wlan[0].mac packetDropIncorrectlyReceived:vector(packetBytes) ETV
attr interpolationmode none
attr source packetDropReasonIsIncorrectlyReceived(packetDropped)
attr title "packet drop: incorrectly received, vector(packetBytes)"
vector 73 Wireless_6_1.hostG.wlan[0].radio transmissionState:vector ETV
attr interpolationmode sample-hold
attr source transmissionStateChanged
attr title "Radio transmission state, vector"
vector 74 Wireless_6_1.hostB.wlan[0].mac packetDropNotAddressedToUs:vector(packetBytes) ETV
attr interpolationmode none
attr source packetDropReasonIsNotAddressedToUs(packetDropped)
attr title "packet drop: not addressed to us, vector(packetBytes)"
vector 75 Wireless_6_1.hostA.udp passedUpPk:vector(count) ETV
attr interpolationmode none
attr source packetSentToUpper
attr title "packets passed up, vector(count)"
vector 76 Wireless_6_1.hostC.wlan[0].mac packetDropNotAddressedToUs:vector(packetBytes) ETV
attr interpolationmode none
attr source packetDropReasonIsNotAddressedToUs(packetDropped)
attr title "packet drop: not addressed to us, vector(packetBytes)"
vector 77 Wireless_6_1.hostD.wlan[0].mac packetDropNotAddressedToUs:vector(packetBytes) ETV
attr interpolationmode none
attr source packetDropReasonIsNotAddressedToUs(packetDropped)
attr title "packet drop: not addressed to us, vector(packetBytes)"
vector 78 Wireless_6_1.hostF.wlan[0].radio transmissionState:vector ETV
attr interpolationmode sample-hold
attr source transmissionStateChanged
attr title "Radio transmission state, vector"
vector 79 Wireless_6_1.hostG.wlan[0].mac packetDropNotAddressedToUs:vector(packetBytes) ETV
attr interpolationmode none
attr source packetDropReasonIsNotAddressedToUs(packetDropped)
attr title "packet drop: not addressed to us, vector(packetBytes)"
vector 80 Wireless_6_1.hostE.wlan[0].radio transmissionState:vector ETV
attr interpolationmode sample-hold
attr source transmissionStateChanged
attr title "Radio transmission state, vector"
vector 81 Wireless_6_1.hostB.wlan[0].radio transmissionState:vector ETV
attr interpolationmode sample-hold
attr source transmissionStateChanged
attr title "Radio transmission state, vector"
0	0	0	0
0	0	0	0
0	0	0	2
0	22	0.00007	3
0	30	0.000616	2
0	150	0.001918013343	3
0	158	0.002136013343	2
0	200	0.002962020015	3
0	208	0.003180020015	2
0	249	0.003846026687	3
0	257	0.004064026687	2
0	297	0.004830033359	3
0	305	0.005048033359	2
0	344	0.005734040031	3
0	352	0.005952040031	2
0	390	0.007178046703	3
0	398	0.007396046703	2
1	0	0	0
1	0	0	0
1	0	0	2
1	320	0.005178036695	3
1	328	0.005724036695	2
2	0	0	0
2	0	0	0
2	0	0	2
2	85	0.000706003336	3
2	101	0.001252003336	2
2	225	0.003290023351	3
2	233	0.003836023351	2
3	0	0	0
3	0	0	0
3	0	0	2
3	86	0.000706003336	3
3	102	0.001252003336	2
3	366	0.006622043367	3
3	374	0.007168043367	2
4	0	0	0
4	0	0	0
4	0	0	2
4	273	0.004274030023	3
4	281	0.004820030023	2
5	0	0	0
5	0	0	0
5	0	0	2
5	176	0.002406016679	3
5	184	0.002952016679	2
6	0	0	0
6	0	0	0
6	0	0	2
6	124	0.001362010007	3
6	134	0.001908010007	2
7	0	0	1
7	22	0.00007	0
7	30	0.000616	1
7	89	0.000706006672	3
7	103	0.001252006672	1
7	126	0.001362013343	3
7	135	0.001908013343	1
7	150	0.001918013343	0
7	158	0.002136013343	1
7	178	0.002406020015	3
7	185	0.002952020015	1
7	200	0.002962020015	0
7	208	0.003180020015	1
7	227	0.003290026687	3
7	234	0.003836026687	1
7	249	0.003846026687	0
7	257	0.004064026687	1
7	275	0.004274033359	3
7	282	0.004820033359	1
7	297	0.004830033359	0
7	305	0.005048033359	1
7	322	0.005178040031	3
7	329	0.005724040031	1
7	344	0.005734040031	0
7	352	0.005952040031	1
7	368	0.006622046703	3
7	375	0.007168046703	1
7	390	0.007178046703	0
7	398	0.007396046703	1
8	0	0	1
8	24	0.000070003336	3
8	31	0.000616003336	1
8	97	0.000706009113	3
8	114	0.001252009113	2
8	118	0.001252010007	1
8	127	0.001362013343	3
8	136	0.001908013343	1
8	152	0.001918016679	3
8	159	0.002136016679	1
8	181	0.002406022456	3
8	194	0.002952022456	1
8	202	0.002962023351	3
8	209	0.003180023351	1
8	232	0.003290030022	3
8	247	0.003836030022	1
8	251	0.003846030023	3
8	258	0.004064030023	1
8	276	0.004274033359	3
8	283	0.004820033359	1
8	299	0.004830036695	3
8	306	0.005048036695	1
8	320	0.005178036695	0
8	328	0.005724036695	1
8	346	0.005734043367	3
8	353	0.005952043367	1
8	371	0.006622049144	3
8	384	0.007168049144	1
8	392	0.007178050039	3
8	399	0.007396050039	1
9	0	0	1
9	25	0.000070003336	3
9	32	0.000616003336	1
9	85	0.000706003336	0
9	101	0.001252003336	2
9	107	0.001252006672	1
9	129	0.001362015784	3
9	144	0.001908015784	1
9	153	0.001918016679	3
9	160	0.002136016679	1
9	179	0.002406020015	3
9	186	0.002952020015	1
9	203	0.002962023351	3
9	210	0.003180023351	1
9	225	0.003290023351	0
9	233	0.003836023351	1
9	252	0.003846030023	3
9	259	0.004064030023	1
9	278	0.0042740358	3
9	291	0.0048200358	1
9	300	0.004830036695	3
9	307	0.005048036695	1
9	327	0.005178043366	3
9	342	0.005724043366	1
9	347	0.005734043367	3
9	354	0.005952043367	1
9	369	0.006622046703	3
9	376	0.007168046703	1
9	393	0.007178050039	3
9	400	0.007396050039	1
10	0	0	1
10	26	0.000070003336	3
10	33	0.000616003336	1
10	86	0.000706003336	0
10	102	0.001252003336	2
10	104	0.001252006672	1
10	131	0.001362016678	3
10	148	0.001908016678	1
10	154	0.001918016679	3
10	161	0.002136016679	1
10	182	0.002406022456	3
10	195	0.002952022456	1
10	204	0.002962023351	3
10	211	0.003180023351	1
10	228	0.003290026687	3
10	235	0.003836026687	1
10	253	0.003846030023	3
10	260	0.004064030023	1
10	277	0.004274033359	3
10	284	0.004820033359	1
10	301	0.004830036695	3
10	308	0.005048036695	1
10	325	0.005178042472	3
10	338	0.005724042472	1
10	348	0.005734043367	3
10	355	0.005952043367	1
10	366	0.006622043367	0
10	374	0.007168043367	1
10	394	0.007178050039	3
10	401	0.007396050039	1
11	0	0	1
11	27	0.000070003336	3
11	34	0.000616003336	1
11	94	0.000706006672	3
11	108	0.001252006672	2
11	112	0.001252009113	1
11	130	0.001362015784	3
11	145	0.001908015784	1
11	155	0.001918016679	3
11	162	0.002136016679	1
11	183	0.00240602335	3
11	198	0.00295202335	1
11	205	0.002962023351	3
11	212	0.003180023351	1
11	230	0.003290029128	3
11	243	0.003836029128	1
11	254	0.003846030023	3
11	261	0.004064030023	1
11	273	0.004274030023	0
11	281	0.004820030023	1
11	302	0.004830036695	3
11	309	0.005048036695	1
11	323	0.005178040031	3
11	330	0.005724040031	1
11	349	0.005734043367	3
11	356	0.005952043367	1
11	370	0.006622046703	3
11	377	0.007168046703	1
11	395	0.007178050039	3
11	402	0.007396050039	1
12	0	0	1
12	28	0.000070003336	3
12	35	0.000616003336	1
12	91	0.000706006672	3
12	105	0.001252006672	2
12	115	0.001252009113	1
12	128	0.001362013343	3
12	137	0.001908013343	1
12	156	0.001918016679	3
12	163	0.002136016679	1
12	176	0.002406016679	0
12	184	0.002952016679	1
12	206	0.002962023351	3
12	213	0.003180023351	1
12	229	0.003290026687	3
12	236	0.003836026687	1
12	255	0.003846030023	3
12	262	0.004064030023	1
12	280	0.004274036694	3
12	295	0.004820036694	1
12	303	0.004830036695	3
12	310	0.005048036695	1
12	326	0.005178042472	3
12	339	0.005724042472	1
12	350	0.005734043367	3
12	357	0.005952043367	1
12	372	0.006622049144	3
12	385	0.007168049144	1
12	396	0.007178050039	3
12	403	0.007396050039	1
13	0	0	1
13	29	0.000070003336	3
13	36	0.000616003336	1
13	96	0.000706009113	3
13	113	0.001252009113	2
13	119	0.001252010007	1
13	124	0.001362010007	0
13	134	0.001908010007	1
13	157	0.001918016679	3
13	164	0.002136016679	1
13	180	0.002406020015	3
13	187	0.002952020015	1
13	207	0.002962023351	3
13	214	0.003180023351	1
13	231	0.003290029128	3
13	244	0.003836029128	1
13	256	0.003846030023	3
13	263	0.004064030023	1
13	279	0.0042740358	3
13	292	0.0048200358	1
13	304	0.004830036695	3
13	311	0.005048036695	1
13	324	0.005178040031	3
13	331	0.005724040031	1
13	351	0.005734043367	3
13	358	0.005952043367	1
13	373	0.006622050038	3
13	388	0.007168050038	1
13	397	0.007178050039	3
13	404	0.007396050039	1
14	3	0	12
15	17	0	32
16	17	0	32
17	18	0	59
18	18	0	1
18	18	0	0
19	18	0	59
20	18	0	0
21	20	0	12
21	142	0.001908013343	12
21	192	0.002952020015	12
21	241	0.003836026687	12
21	289	0.004820033359	12
21	336	0.005724040031	12
21	382	0.007168046703	12
22	20	0	1
23	22	0.00007	1
23	23	0.00007	2
23	30	0.000616	1
23	30	0.000616	0
23	150	0.001918013343	1
23	151	0.001918013343	2
23	158	0.002136013343	1
23	158	0.002136013343	0
23	200	0.002962020015	1
23	201	0.002962020015	2
23	208	0.003180020015	1
23	208	0.003180020015	0
23	249	0.003846026687	1
23	250	0.003846026687	2
23	257	0.004064026687	1
23	257	0.004064026687	0
23	297	0.004830033359	1
23	298	0.004830033359	2
23	305	0.005048033359	1
23	305	0.005048033359	0
23	344	0.005734040031	1
23	345	0.005734040031	2
23	352	0.005952040031	1
23	352	0.005952040031	0
23	390	0.007178046703	1
23	391	0.007178046703	2
23	398	0.007396046703	1
23	398	0.007396046703	0
24	49	0.000616003336	12
25	49	0.000616003336	1
26	50	0.000616003336	12
27	50	0.000616003336	1
28	51	0.000616003336	12
29	51	0.000616003336	1
30	52	0.000616003336	12
31	52	0.000616003336	1
32	53	0.000616003336	12
33	53	0.000616003336	1
34	54	0.000616003336	12
35	54	0.000616003336	1
36	61	0.000616003336	12
37	62	0.000616003336	12
38	63	0.000616003336	12
39	64	0.000616003336	12
40	65	0.000616003336	12
41	66	0.000616003336	12
42	73	0.000616003336	59
43	73	0.000616003336	1
43	73	0.000616003336	0
44	73	0.000616003336	59
45	73	0.000616003336	0
46	74	0.000616003336	59
47	74	0.000616003336	1
47	74	0.000616003336	0
48	74	0.000616003336	59
49	74	0.000616003336	0
50	75	0.000616003336	59
51	75	0.000616003336	1
51	75	0.000616003336	0
52	75	0.000616003336	59
53	75	0.000616003336	0
54	76	0.000616003336	59
55	76	0.000616003336	1
55	76	0.000616003336	0
56	76	0.000616003336	59
57	76	0.000616003336	0
58	77	0.000616003336	59
59	77	0.000616003336	1
59	77	0.000616003336	0
60	77	0.000616003336	59
61	77	0.000616003336	0
62	78	0.000616003336	59
63	78	0.000616003336	1
63	78	0.000616003336	0
64	78	0.000616003336	59
65	78	0.000616003336	0
66	85	0.000706003336	1
66	87	0.000706003336	2
66	101	0.001252003336	1
66	101	0.001252003336	0
66	225	0.003290023351	1
66	226	0.003290023351	2
66	233	0.003836023351	1
66	233	0.003836023351	0
67	86	0.000706003336	1
67	88	0.000706003336	2
67	102	0.001252003336	1
67	102	0.001252003336	0
67	366	0.006622043367	1
67	367	0.006622043367	2
67	374	0.007168043367	1
67	374	0.007168043367	0
68	109	0.001252006672	59
69	110	0.001252006672	59
69	140	0.001908013343	59
69	239	0.003836026687	59
69	296	0.004820036694	59
69	341	0.005724042472	59
69	387	0.007168049144	59
70	111	0.001252006672	59
70	147	0.001908015784	59
70	199	0.00295202335	59
70	245	0.003836029128	59
70	333	0.005724040031	59
70	380	0.007168046703	59
71	116	0.001252009113	59
72	117	0.001252009113	59
73	124	0.001362010007	1
73	125	0.001362010007	2
73	134	0.001908010007	1
73	134	0.001908010007	0
74	139	0.001908013343	59
74	196	0.002952022456	59
74	248	0.003836030022	59
74	286	0.004820033359	59
74	386	0.007168049144	59
75	142	0.001908013343	1
75	192	0.002952020015	2
75	241	0.003836026687	3
75	289	0.004820033359	4
75	336	0.005724040031	5
75	382	0.007168046703	6
76	146	0.001908015784	59
76	189	0.002952020015	59
76	293	0.0048200358	59
76	343	0.005724043366	59
76	379	0.007168046703	59
77	149	0.001908016678	59
77	197	0.002952022456	59
77	238	0.003836026687	59
77	287	0.004820033359	59
77	340	0.005724042472	59
78	176	0.002406016679	1
78	177	0.002406016679	2
78	184	0.002952016679	1
78	184	0.002952016679	0
79	190	0.002952020015	59
79	246	0.003836029128	59
79	294	0.0048200358	59
79	334	0.005724040031	59
79	389	0.007168050038	59
80	273	0.004274030023	1
80	274	0.004274030023	2
80	281	0.004820030023	1
80	281	0.004820030023	0
81	320	0.005178036695	1
81	321	0.005178036695	2
81	328	0.005724036695	1
81	328	0.005724036695	0

