version 2
run Wireless01-201-20200717-17:55:09-14331
attr configname Wireless01
attr datetime 20200717-17:55:09
attr experiment Wireless01
attr inifile omnetpp.ini
attr iterationvars $name=Wireless_6_10
attr iterationvarsf name=Wireless#_6#_10-
attr measurement $name=Wireless_6_10
attr network "${name=WirelessA, Wireless_3_1, Wireless_3_5, Wireless_3_10, Wireless_6_1,Wireless_6_5,Wireless_6_10,Wireless_12_1,Wireless_12_5,Wireless_12_10}"
attr processid 14331
attr repetition 21
attr replication #21
attr resultdir results
attr runnumber 201
attr seedset 201
itervar name Wireless_6_10
param *.hostA.numApps 1
param *.hostA.app[0].typename "\"TDOAApp\""
param *.hostA.app[0].destAddresses "\"Broadcast\""
param *.hostA.app[0].destPort 5000
param *.hostA.app[0].localPort 6000
param *.hostA.app[0].isReceiver false
param *.hostA.app[0].Nome_arquivo "\"Wireless_6_10.csv\""
param *.host*.numApps 1
param *.host*.app[0].typename "\"TDOAApp\""
param *.host*.app[0].localPort 5000
param *.host*.app[0].destPort 6000
param *.host*.app[0].destAddresses "\"hostA\""
param *.host*.app[0].isReceiver true
param *.host*.wlan[0].typename "\"WirelessInterface\""
param *.radioMedium.typename "\"ApskScalarRadioMedium\""
param *.radioMedium.backgroundNoise.power -90dBm
param *.radioMedium.mediumLimitCache.centerFrequency 2GHz
param *.host*.wlan[0].radio.typename "\"ApskScalarRadio\""
param *.host*.wlan[0].radio.centerFrequency 2GHz
param *.host*.wlan[0].radio.bandwidth 2MHz
param *.host*.wlan[0].radio.transmitter.power 1.4mW
param *.host*.wlan[0].radio.transmitter.preambleDuration 10us
param *.host*.wlan[0].radio.transmitter.headerLength 8B
param *.host*.wlan[0].radio.receiver.sensitivity -85dBm
param *.host*.wlan[0].radio.receiver.energyDetection -85dBm
param *.host*.wlan[0].radio.receiver.snirThreshold 4dB
param *.host*.wlan[0].mac.typename "\"CsmaCaMac\""
param *.host*.wlan[0].mac.ackTimeout 300us
param *.host*.wlan[0].mac.useAck true
param *.host*.wlan[0].mac.fullDuplex false
param *.host*.wlan[0].radio.receiver.ignoreInterference true
param *.host*.wlan[0].mac.headerLength 23B
param *.host*.**.bitrate 1Mbps
param *.host*.ipv4.arp.typename "\"GlobalArp\""
param **.ip.limitedBroadcast true

vector 0 Wireless_6_10.hostA.wlan[0].radio radioMode:vector ETV
attr interpolationmode sample-hold
attr source radioModeChanged
attr title "Radio mode, vector"
vector 1 Wireless_6_10.hostB.wlan[0].radio radioMode:vector ETV
attr interpolationmode sample-hold
attr source radioModeChanged
attr title "Radio mode, vector"
vector 2 Wireless_6_10.hostC.wlan[0].radio radioMode:vector ETV
attr interpolationmode sample-hold
attr source radioModeChanged
attr title "Radio mode, vector"
vector 3 Wireless_6_10.hostD.wlan[0].radio radioMode:vector ETV
attr interpolationmode sample-hold
attr source radioModeChanged
attr title "Radio mode, vector"
vector 4 Wireless_6_10.hostE.wlan[0].radio radioMode:vector ETV
attr interpolationmode sample-hold
attr source radioModeChanged
attr title "Radio mode, vector"
vector 5 Wireless_6_10.hostF.wlan[0].radio radioMode:vector ETV
attr interpolationmode sample-hold
attr source radioModeChanged
attr title "Radio mode, vector"
vector 6 Wireless_6_10.hostG.wlan[0].radio radioMode:vector ETV
attr interpolationmode sample-hold
attr source radioModeChanged
attr title "Radio mode, vector"
vector 7 Wireless_6_10.hostA.wlan[0].radio receptionState:vector ETV
attr interpolationmode sample-hold
attr source receptionStateChanged
attr title "Radio reception state, vector"
vector 8 Wireless_6_10.hostB.wlan[0].radio receptionState:vector ETV
attr interpolationmode sample-hold
attr source receptionStateChanged
attr title "Radio reception state, vector"
vector 9 Wireless_6_10.hostC.wlan[0].radio receptionState:vector ETV
attr interpolationmode sample-hold
attr source receptionStateChanged
attr title "Radio reception state, vector"
vector 10 Wireless_6_10.hostD.wlan[0].radio receptionState:vector ETV
attr interpolationmode sample-hold
attr source receptionStateChanged
attr title "Radio reception state, vector"
vector 11 Wireless_6_10.hostE.wlan[0].radio receptionState:vector ETV
attr interpolationmode sample-hold
attr source receptionStateChanged
attr title "Radio reception state, vector"
vector 12 Wireless_6_10.hostF.wlan[0].radio receptionState:vector ETV
attr interpolationmode sample-hold
attr source receptionStateChanged
attr title "Radio reception state, vector"
vector 13 Wireless_6_10.hostG.wlan[0].radio receptionState:vector ETV
attr interpolationmode sample-hold
attr source receptionStateChanged
attr title "Radio reception state, vector"
vector 14 Wireless_6_10.hostA.udp packetSent:vector(packetBytes) ETV
attr interpolationmode none
attr source packetSent
attr title "packets sent, vector(packetBytes)"
vector 15 Wireless_6_10.hostA.lo[0].lo rcvdPkFromHl:vector(packetBytes) ETV
attr interpolationmode none
attr source packetReceivedFromUpper
attr title "packets received from higher layer, vector(packetBytes)"
vector 16 Wireless_6_10.hostA.lo[0].lo passedUpPk:vector(packetBytes) ETV
attr interpolationmode none
attr source packetSentToUpper
attr title "packets passed to higher layer, vector(packetBytes)"
vector 17 Wireless_6_10.hostA.wlan[0].mac.queue packetPushed:vector(packetBytes) ETV
attr interpolationmode none
attr title "packet pushed, vector(packetBytes)"
vector 18 Wireless_6_10.hostA.wlan[0].mac.queue queueLength:vector ETV
attr interpolationmode sample-hold
attr source "count(packetPushed) - count(packetPopped) - count(packetRemoved) - count(packetDropped)"
attr title "queue length, vector"
vector 19 Wireless_6_10.hostA.wlan[0].mac.queue packetPopped:vector(packetBytes) ETV
attr interpolationmode none
attr title "packet popped, vector(packetBytes)"
vector 20 Wireless_6_10.hostA.wlan[0].mac.queue queueingTime:vector ETV
attr interpolationmode none
attr source queueingTime(packetPopped)
attr title "queueing times, vector"
attr unit s
vector 21 Wireless_6_10.hostA.udp packetReceived:vector(packetBytes) ETV
attr interpolationmode none
attr source packetReceived
attr title "packets received, vector(packetBytes)"
vector 22 Wireless_6_10.hostA.udp droppedPkWrongPort:vector(count) ETV
attr interpolationmode none
attr source packetDropReasonIsNoPortFound(packetDropped)
attr title "packets dropped (wrong port), vector(count)"
vector 23 Wireless_6_10.hostA.wlan[0].radio transmissionState:vector ETV
attr interpolationmode sample-hold
attr source transmissionStateChanged
attr title "Radio transmission state, vector"
vector 24 Wireless_6_10.hostB.udp packetReceived:vector(packetBytes) ETV
attr interpolationmode none
attr source packetReceived
attr title "packets received, vector(packetBytes)"
vector 25 Wireless_6_10.hostB.udp passedUpPk:vector(count) ETV
attr interpolationmode none
attr source packetSentToUpper
attr title "packets passed up, vector(count)"
vector 26 Wireless_6_10.hostC.udp packetReceived:vector(packetBytes) ETV
attr interpolationmode none
attr source packetReceived
attr title "packets received, vector(packetBytes)"
vector 27 Wireless_6_10.hostC.udp passedUpPk:vector(count) ETV
attr interpolationmode none
attr source packetSentToUpper
attr title "packets passed up, vector(count)"
vector 28 Wireless_6_10.hostD.udp packetReceived:vector(packetBytes) ETV
attr interpolationmode none
attr source packetReceived
attr title "packets received, vector(packetBytes)"
vector 29 Wireless_6_10.hostD.udp passedUpPk:vector(count) ETV
attr interpolationmode none
attr source packetSentToUpper
attr title "packets passed up, vector(count)"
vector 30 Wireless_6_10.hostE.udp packetReceived:vector(packetBytes) ETV
attr interpolationmode none
attr source packetReceived
attr title "packets received, vector(packetBytes)"
vector 31 Wireless_6_10.hostE.udp passedUpPk:vector(count) ETV
attr interpolationmode none
attr source packetSentToUpper
attr title "packets passed up, vector(count)"
vector 32 Wireless_6_10.hostF.udp packetReceived:vector(packetBytes) ETV
attr interpolationmode none
attr source packetReceived
attr title "packets received, vector(packetBytes)"
vector 33 Wireless_6_10.hostF.udp passedUpPk:vector(count) ETV
attr interpolationmode none
attr source packetSentToUpper
attr title "packets passed up, vector(count)"
vector 34 Wireless_6_10.hostG.udp packetReceived:vector(packetBytes) ETV
attr interpolationmode none
attr source packetReceived
attr title "packets received, vector(packetBytes)"
vector 35 Wireless_6_10.hostG.udp passedUpPk:vector(count) ETV
attr interpolationmode none
attr source packetSentToUpper
attr title "packets passed up, vector(count)"
vector 36 Wireless_6_10.hostB.udp packetSent:vector(packetBytes) ETV
attr interpolationmode none
attr source packetSent
attr title "packets sent, vector(packetBytes)"
vector 37 Wireless_6_10.hostC.udp packetSent:vector(packetBytes) ETV
attr interpolationmode none
attr source packetSent
attr title "packets sent, vector(packetBytes)"
vector 38 Wireless_6_10.hostD.udp packetSent:vector(packetBytes) ETV
attr interpolationmode none
attr source packetSent
attr title "packets sent, vector(packetBytes)"
vector 39 Wireless_6_10.hostE.udp packetSent:vector(packetBytes) ETV
attr interpolationmode none
attr source packetSent
attr title "packets sent, vector(packetBytes)"
vector 40 Wireless_6_10.hostF.udp packetSent:vector(packetBytes) ETV
attr interpolationmode none
attr source packetSent
attr title "packets sent, vector(packetBytes)"
vector 41 Wireless_6_10.hostG.udp packetSent:vector(packetBytes) ETV
attr interpolationmode none
attr source packetSent
attr title "packets sent, vector(packetBytes)"
vector 42 Wireless_6_10.hostB.wlan[0].mac.queue packetPushed:vector(packetBytes) ETV
attr interpolationmode none
attr title "packet pushed, vector(packetBytes)"
vector 43 Wireless_6_10.hostB.wlan[0].mac.queue queueLength:vector ETV
attr interpolationmode sample-hold
attr source "count(packetPushed) - count(packetPopped) - count(packetRemoved) - count(packetDropped)"
attr title "queue length, vector"
vector 44 Wireless_6_10.hostB.wlan[0].mac.queue packetPopped:vector(packetBytes) ETV
attr interpolationmode none
attr title "packet popped, vector(packetBytes)"
vector 45 Wireless_6_10.hostB.wlan[0].mac.queue queueingTime:vector ETV
attr interpolationmode none
attr source queueingTime(packetPopped)
attr title "queueing times, vector"
attr unit s
vector 46 Wireless_6_10.hostC.wlan[0].mac.queue packetPushed:vector(packetBytes) ETV
attr interpolationmode none
attr title "packet pushed, vector(packetBytes)"
vector 47 Wireless_6_10.hostC.wlan[0].mac.queue queueLength:vector ETV
attr interpolationmode sample-hold
attr source "count(packetPushed) - count(packetPopped) - count(packetRemoved) - count(packetDropped)"
attr title "queue length, vector"
vector 48 Wireless_6_10.hostC.wlan[0].mac.queue packetPopped:vector(packetBytes) ETV
attr interpolationmode none
attr title "packet popped, vector(packetBytes)"
vector 49 Wireless_6_10.hostC.wlan[0].mac.queue queueingTime:vector ETV
attr interpolationmode none
attr source queueingTime(packetPopped)
attr title "queueing times, vector"
attr unit s
vector 50 Wireless_6_10.hostD.wlan[0].mac.queue packetPushed:vector(packetBytes) ETV
attr interpolationmode none
attr title "packet pushed, vector(packetBytes)"
vector 51 Wireless_6_10.hostD.wlan[0].mac.queue queueLength:vector ETV
attr interpolationmode sample-hold
attr source "count(packetPushed) - count(packetPopped) - count(packetRemoved) - count(packetDropped)"
attr title "queue length, vector"
vector 52 Wireless_6_10.hostD.wlan[0].mac.queue packetPopped:vector(packetBytes) ETV
attr interpolationmode none
attr title "packet popped, vector(packetBytes)"
vector 53 Wireless_6_10.hostD.wlan[0].mac.queue queueingTime:vector ETV
attr interpolationmode none
attr source queueingTime(packetPopped)
attr title "queueing times, vector"
attr unit s
vector 54 Wireless_6_10.hostE.wlan[0].mac.queue packetPushed:vector(packetBytes) ETV
attr interpolationmode none
attr title "packet pushed, vector(packetBytes)"
vector 55 Wireless_6_10.hostE.wlan[0].mac.queue queueLength:vector ETV
attr interpolationmode sample-hold
attr source "count(packetPushed) - count(packetPopped) - count(packetRemoved) - count(packetDropped)"
attr title "queue length, vector"
vector 56 Wireless_6_10.hostE.wlan[0].mac.queue packetPopped:vector(packetBytes) ETV
attr interpolationmode none
attr title "packet popped, vector(packetBytes)"
vector 57 Wireless_6_10.hostE.wlan[0].mac.queue queueingTime:vector ETV
attr interpolationmode none
attr source queueingTime(packetPopped)
attr title "queueing times, vector"
attr unit s
vector 58 Wireless_6_10.hostF.wlan[0].mac.queue packetPushed:vector(packetBytes) ETV
attr interpolationmode none
attr title "packet pushed, vector(packetBytes)"
vector 59 Wireless_6_10.hostF.wlan[0].mac.queue queueLength:vector ETV
attr interpolationmode sample-hold
attr source "count(packetPushed) - count(packetPopped) - count(packetRemoved) - count(packetDropped)"
attr title "queue length, vector"
vector 60 Wireless_6_10.hostF.wlan[0].mac.queue packetPopped:vector(packetBytes) ETV
attr interpolationmode none
attr title "packet popped, vector(packetBytes)"
vector 61 Wireless_6_10.hostF.wlan[0].mac.queue queueingTime:vector ETV
attr interpolationmode none
attr source queueingTime(packetPopped)
attr title "queueing times, vector"
attr unit s
vector 62 Wireless_6_10.hostG.wlan[0].mac.queue packetPushed:vector(packetBytes) ETV
attr interpolationmode none
attr title "packet pushed, vector(packetBytes)"
vector 63 Wireless_6_10.hostG.wlan[0].mac.queue queueLength:vector ETV
attr interpolationmode sample-hold
attr source "count(packetPushed) - count(packetPopped) - count(packetRemoved) - count(packetDropped)"
attr title "queue length, vector"
vector 64 Wireless_6_10.hostG.wlan[0].mac.queue packetPopped:vector(packetBytes) ETV
attr interpolationmode none
attr title "packet popped, vector(packetBytes)"
vector 65 Wireless_6_10.hostG.wlan[0].mac.queue queueingTime:vector ETV
attr interpolationmode none
attr source queueingTime(packetPopped)
attr title "queueing times, vector"
attr unit s
vector 66 Wireless_6_10.hostB.wlan[0].radio transmissionState:vector ETV
attr interpolationmode sample-hold
attr source transmissionStateChanged
attr title "Radio transmission state, vector"
vector 67 Wireless_6_10.hostD.wlan[0].radio transmissionState:vector ETV
attr interpolationmode sample-hold
attr source transmissionStateChanged
attr title "Radio transmission state, vector"
vector 68 Wireless_6_10.hostA.wlan[0].mac packetDropIncorrectlyReceived:vector(packetBytes) ETV
attr interpolationmode none
attr source packetDropReasonIsIncorrectlyReceived(packetDropped)
attr title "packet drop: incorrectly received, vector(packetBytes)"
vector 69 Wireless_6_10.hostE.wlan[0].mac packetDropIncorrectlyReceived:vector(packetBytes) ETV
attr interpolationmode none
attr source packetDropReasonIsIncorrectlyReceived(packetDropped)
attr title "packet drop: incorrectly received, vector(packetBytes)"
vector 70 Wireless_6_10.hostG.wlan[0].mac packetDropNotAddressedToUs:vector(packetBytes) ETV
attr interpolationmode none
attr source packetDropReasonIsNotAddressedToUs(packetDropped)
attr title "packet drop: not addressed to us, vector(packetBytes)"
vector 71 Wireless_6_10.hostC.wlan[0].mac packetDropNotAddressedToUs:vector(packetBytes) ETV
attr interpolationmode none
attr source packetDropReasonIsNotAddressedToUs(packetDropped)
attr title "packet drop: not addressed to us, vector(packetBytes)"
vector 72 Wireless_6_10.hostF.wlan[0].mac packetDropIncorrectlyReceived:vector(packetBytes) ETV
attr interpolationmode none
attr source packetDropReasonIsIncorrectlyReceived(packetDropped)
attr title "packet drop: incorrectly received, vector(packetBytes)"
vector 73 Wireless_6_10.hostC.wlan[0].radio transmissionState:vector ETV
attr interpolationmode sample-hold
attr source transmissionStateChanged
attr title "Radio transmission state, vector"
vector 74 Wireless_6_10.hostG.wlan[0].radio transmissionState:vector ETV
attr interpolationmode sample-hold
attr source transmissionStateChanged
attr title "Radio transmission state, vector"
vector 75 Wireless_6_10.hostD.wlan[0].mac packetDropNotAddressedToUs:vector(packetBytes) ETV
attr interpolationmode none
attr source packetDropReasonIsNotAddressedToUs(packetDropped)
attr title "packet drop: not addressed to us, vector(packetBytes)"
vector 76 Wireless_6_10.hostB.wlan[0].mac packetDropNotAddressedToUs:vector(packetBytes) ETV
attr interpolationmode none
attr source packetDropReasonIsNotAddressedToUs(packetDropped)
attr title "packet drop: not addressed to us, vector(packetBytes)"
vector 77 Wireless_6_10.hostF.wlan[0].radio transmissionState:vector ETV
attr interpolationmode sample-hold
attr source transmissionStateChanged
attr title "Radio transmission state, vector"
vector 78 Wireless_6_10.hostA.udp passedUpPk:vector(count) ETV
attr interpolationmode none
attr source packetSentToUpper
attr title "packets passed up, vector(count)"
vector 79 Wireless_6_10.hostE.wlan[0].mac packetDropNotAddressedToUs:vector(packetBytes) ETV
attr interpolationmode none
attr source packetDropReasonIsNotAddressedToUs(packetDropped)
attr title "packet drop: not addressed to us, vector(packetBytes)"
vector 80 Wireless_6_10.hostE.wlan[0].radio transmissionState:vector ETV
attr interpolationmode sample-hold
attr source transmissionStateChanged
attr title "Radio transmission state, vector"
vector 81 Wireless_6_10.hostF.wlan[0].mac packetDropNotAddressedToUs:vector(packetBytes) ETV
attr interpolationmode none
attr source packetDropReasonIsNotAddressedToUs(packetDropped)
attr title "packet drop: not addressed to us, vector(packetBytes)"
0	0	0	0
0	0	0	0
0	0	0	2
0	22	0.00009	3
0	30	0.000636	2
0	191	0.002954166781	3
0	199	0.003172166781	2
0	241	0.003878233493	3
0	249	0.004096233493	2
0	329	0.00573835798	3
0	337	0.00595635798	2
0	377	0.006782424692	3
0	385	0.007000424692	2
0	424	0.007946491404	3
0	432	0.008164491404	2
0	470	0.010290558116	3
0	478	0.010508558116	2
1	0	0	0
1	0	0	0
1	0	0	2
1	85	0.000786033356	3
1	101	0.001332033356	2
1	353	0.006226391336	3
1	361	0.006772391336	2
2	0	0	0
2	0	0	0
2	0	0	2
2	124	0.001602100069	3
2	142	0.002148100069	2
2	303	0.005182324624	3
2	313	0.005728324624	2
3	0	0	0
3	0	0	0
3	0	0	2
3	86	0.000786033356	3
3	102	0.001332033356	2
3	266	0.004526266849	3
3	282	0.005072266849	2
3	446	0.00973452476	3
3	454	0.01028052476	2
4	0	0	0
4	0	0	0
4	0	0	2
4	217	0.003322200137	3
4	225	0.003868200137	2
5	0	0	0
5	0	0	0
5	0	0	2
5	165	0.002398133425	3
5	175	0.002944133425	2
6	0	0	0
6	0	0	0
6	0	0	2
6	125	0.001602100069	3
6	143	0.002148100069	2
6	267	0.004526266849	3
6	283	0.005072266849	2
6	400	0.007390458048	3
6	408	0.007936458048	2
7	0	0	1
7	22	0.00009	0
7	30	0.000636	1
7	89	0.000786066712	3
7	103	0.001332066712	1
7	128	0.001602133425	3
7	144	0.002148133425	1
7	167	0.002398166781	3
7	176	0.002944166781	1
7	191	0.002954166781	0
7	199	0.003172166781	1
7	219	0.003322233493	3
7	226	0.003868233493	1
7	241	0.003878233493	0
7	249	0.004096233493	1
7	270	0.004526300205	3
7	284	0.005072300205	1
7	305	0.00518235798	3
7	314	0.00572835798	1
7	329	0.00573835798	0
7	337	0.00595635798	1
7	355	0.006226424692	3
7	362	0.006772424692	1
7	377	0.006782424692	0
7	385	0.007000424692	1
7	402	0.007390491404	3
7	409	0.007936491404	1
7	424	0.007946491404	0
7	432	0.008164491404	1
7	448	0.009734558116	3
7	455	0.010280558116	1
7	470	0.010290558116	0
7	478	0.010508558116	1
8	0	0	1
8	24	0.000090033356	3
8	31	0.000636033356	1
8	85	0.000786033356	0
8	101	0.001332033356	2
8	115	0.001332091131	1
8	132	0.001602133425	3
8	148	0.002148133425	2
8	159	0.002148166782	1
8	170	0.0023981912	3
8	185	0.0029441912	1
8	193	0.002954200137	3
8	200	0.003172200137	1
8	220	0.003322233493	3
8	227	0.003868233493	1
8	243	0.003878266849	3
8	250	0.004096266849	1
8	274	0.004526300205	3
8	288	0.005072300205	2
8	295	0.005072324624	1
8	310	0.005182391337	3
8	327	0.005728391337	1
8	331	0.005738391336	3
8	338	0.005956391336	1
8	353	0.006226391336	0
8	361	0.006772391336	1
8	379	0.006782458048	3
8	386	0.007000458048	1
8	403	0.007390491404	3
8	410	0.007936491404	1
8	426	0.00794652476	3
8	433	0.00816452476	1
8	451	0.009734582535	3
8	464	0.010280582535	1
8	472	0.010290591472	3
8	479	0.010508591472	1
9	0	0	1
9	25	0.000090033356	3
9	32	0.000636033356	1
9	93	0.000786066712	3
9	107	0.001332066712	2
9	118	0.001332100069	1
9	124	0.001602100069	0
9	142	0.002148100069	2
9	156	0.002148157844	1
9	168	0.002398166781	3
9	177	0.002944166781	1
9	194	0.002954200137	3
9	201	0.003172200137	1
9	222	0.003322257912	3
9	235	0.003868257912	1
9	244	0.003878266849	3
9	251	0.004096266849	1
9	271	0.004526300205	3
9	285	0.005072300205	2
9	297	0.005072324624	1
9	303	0.005182324624	0
9	313	0.005728324624	1
9	332	0.005738391336	3
9	339	0.005956391336	1
9	360	0.006226458049	3
9	375	0.006772458049	1
9	380	0.006782458048	3
9	387	0.007000458048	1
9	405	0.007390515823	3
9	418	0.007936515823	1
9	427	0.00794652476	3
9	434	0.00816452476	1
9	449	0.009734558116	3
9	456	0.010280558116	1
9	473	0.010290591472	3
9	480	0.010508591472	1
10	0	0	1
10	26	0.000090033356	3
10	33	0.000636033356	1
10	86	0.000786033356	0
10	102	0.001332033356	2
10	113	0.001332091131	1
10	129	0.001602133425	3
10	145	0.002148133425	2
10	160	0.002148166782	1
10	171	0.0023981912	3
10	186	0.0029441912	1
10	195	0.002954200137	3
10	202	0.003172200137	1
10	221	0.003322233493	3
10	228	0.003868233493	1
10	245	0.003878266849	3
10	252	0.004096266849	1
10	266	0.004526266849	0
10	282	0.005072266849	2
10	300	0.005072333562	1
10	306	0.00518235798	3
10	315	0.00572835798	1
10	333	0.005738391336	3
10	340	0.005956391336	1
10	358	0.006226449111	3
10	371	0.006772449111	1
10	381	0.006782458048	3
10	388	0.007000458048	1
10	407	0.007390524761	3
10	422	0.007936524761	1
10	428	0.00794652476	3
10	435	0.00816452476	1
10	446	0.00973452476	0
10	454	0.01028052476	1
10	474	0.010290591472	3
10	481	0.010508591472	1
11	0	0	1
11	27	0.000090033356	3
11	34	0.000636033356	1
11	90	0.000786066712	3
11	104	0.001332066712	1
11	134	0.001602157844	3
11	154	0.002148157844	1
11	172	0.002398200138	3
11	189	0.002944200138	1
11	196	0.002954200137	3
11	203	0.003172200137	1
11	217	0.003322200137	0
11	225	0.003868200137	1
11	246	0.003878266849	3
11	253	0.004096266849	1
11	272	0.004526300205	3
11	286	0.005072300205	2
11	298	0.005072324624	1
11	308	0.005182382399	3
11	323	0.005728382399	1
11	334	0.005738391336	3
11	341	0.005956391336	1
11	356	0.006226424692	3
11	363	0.006772424692	1
11	382	0.006782458048	3
11	389	0.007000458048	1
11	406	0.007390515823	3
11	419	0.007936515823	1
11	429	0.00794652476	3
11	436	0.00816452476	1
11	450	0.009734558116	3
11	457	0.010280558116	1
11	475	0.010290591472	3
11	482	0.010508591472	1
12	0	0	1
12	28	0.000090033356	3
12	35	0.000636033356	1
12	96	0.000786091131	3
12	114	0.001332091131	1
12	130	0.001602133425	3
12	146	0.002148133425	1
12	165	0.002398133425	0
12	175	0.002944133425	1
12	197	0.002954200137	3
12	204	0.003172200137	1
12	224	0.00332226685	3
12	239	0.00386826685	1
12	247	0.003878266849	3
12	254	0.004096266849	1
12	275	0.004526300205	3
12	289	0.005072300205	2
12	296	0.005072324624	1
12	307	0.00518235798	3
12	316	0.00572835798	1
12	335	0.005738391336	3
12	342	0.005956391336	1
12	359	0.006226449111	3
12	372	0.006772449111	1
12	383	0.006782458048	3
12	390	0.007000458048	1
12	404	0.007390491404	3
12	411	0.007936491404	1
12	430	0.00794652476	3
12	437	0.00816452476	1
12	452	0.009734582535	3
12	465	0.010280582535	1
12	476	0.010290591472	3
12	483	0.010508591472	1
13	0	0	1
13	29	0.000090033356	3
13	36	0.000636033356	1
13	91	0.000786066712	3
13	105	0.001332066712	2
13	119	0.001332100069	1
13	125	0.001602100069	0
13	143	0.002148100069	2
13	155	0.002148157844	1
13	169	0.002398166781	3
13	178	0.002944166781	1
13	198	0.002954200137	3
13	205	0.003172200137	1
13	223	0.003322257912	3
13	236	0.003868257912	1
13	248	0.003878266849	3
13	255	0.004096266849	1
13	267	0.004526266849	0
13	283	0.005072266849	2
13	299	0.005072333562	1
13	309	0.005182382399	3
13	324	0.005728382399	1
13	336	0.005738391336	3
13	343	0.005956391336	1
13	357	0.006226424692	3
13	364	0.006772424692	1
13	384	0.006782458048	3
13	391	0.007000458048	1
13	400	0.007390458048	0
13	408	0.007936458048	1
13	431	0.00794652476	3
13	438	0.00816452476	1
13	453	0.009734591473	3
13	468	0.010280591473	1
13	477	0.010290591472	3
13	484	0.010508591472	1
14	3	0	12
15	17	0	32
16	17	0	32
17	18	0	59
18	18	0	1
18	18	0	0
19	18	0	59
20	18	0	0
21	20	0	12
21	183	0.002944166781	12
21	233	0.003868233493	12
21	321	0.00572835798	12
21	369	0.006772424692	12
21	416	0.007936491404	12
21	462	0.010280558116	12
22	20	0	1
23	22	0.00009	1
23	23	0.00009	2
23	30	0.000636	1
23	30	0.000636	0
23	191	0.002954166781	1
23	192	0.002954166781	2
23	199	0.003172166781	1
23	199	0.003172166781	0
23	241	0.003878233493	1
23	242	0.003878233493	2
23	249	0.004096233493	1
23	249	0.004096233493	0
23	329	0.00573835798	1
23	330	0.00573835798	2
23	337	0.00595635798	1
23	337	0.00595635798	0
23	377	0.006782424692	1
23	378	0.006782424692	2
23	385	0.007000424692	1
23	385	0.007000424692	0
23	424	0.007946491404	1
23	425	0.007946491404	2
23	432	0.008164491404	1
23	432	0.008164491404	0
23	470	0.010290558116	1
23	471	0.010290558116	2
23	478	0.010508558116	1
23	478	0.010508558116	0
24	49	0.000636033356	12
25	49	0.000636033356	1
26	50	0.000636033356	12
27	50	0.000636033356	1
28	51	0.000636033356	12
29	51	0.000636033356	1
30	52	0.000636033356	12
31	52	0.000636033356	1
32	53	0.000636033356	12
33	53	0.000636033356	1
34	54	0.000636033356	12
35	54	0.000636033356	1
36	61	0.000636033356	12
37	62	0.000636033356	12
38	63	0.000636033356	12
39	64	0.000636033356	12
40	65	0.000636033356	12
41	66	0.000636033356	12
42	73	0.000636033356	59
43	73	0.000636033356	1
43	73	0.000636033356	0
44	73	0.000636033356	59
45	73	0.000636033356	0
46	74	0.000636033356	59
47	74	0.000636033356	1
47	74	0.000636033356	0
48	74	0.000636033356	59
49	74	0.000636033356	0
50	75	0.000636033356	59
51	75	0.000636033356	1
51	75	0.000636033356	0
52	75	0.000636033356	59
53	75	0.000636033356	0
54	76	0.000636033356	59
55	76	0.000636033356	1
55	76	0.000636033356	0
56	76	0.000636033356	59
57	76	0.000636033356	0
58	77	0.000636033356	59
59	77	0.000636033356	1
59	77	0.000636033356	0
60	77	0.000636033356	59
61	77	0.000636033356	0
62	78	0.000636033356	59
63	78	0.000636033356	1
63	78	0.000636033356	0
64	78	0.000636033356	59
65	78	0.000636033356	0
66	85	0.000786033356	1
66	87	0.000786033356	2
66	101	0.001332033356	1
66	101	0.001332033356	0
66	353	0.006226391336	1
66	354	0.006226391336	2
66	361	0.006772391336	1
66	361	0.006772391336	0
67	86	0.000786033356	1
67	88	0.000786033356	2
67	102	0.001332033356	1
67	102	0.001332033356	0
67	266	0.004526266849	1
67	268	0.004526266849	2
67	282	0.005072266849	1
67	282	0.005072266849	0
67	446	0.00973452476	1
67	447	0.00973452476	2
67	454	0.01028052476	1
67	454	0.01028052476	0
68	109	0.001332066712	59
68	150	0.002148133425	59
68	290	0.005072300205	59
69	110	0.001332066712	59
69	158	0.002148157844	59
70	111	0.001332066712	59
70	181	0.002944166781	59
70	238	0.003868257912	59
70	326	0.005728382399	59
70	367	0.006772424692	59
70	469	0.010280591473	59
71	112	0.001332066712	59
71	180	0.002944166781	59
71	237	0.003868257912	59
71	291	0.005072300205	59
71	376	0.006772458049	59
71	420	0.007936515823	59
71	459	0.010280558116	59
72	117	0.001332091131	59
72	152	0.002148133425	59
73	124	0.001602100069	1
73	126	0.001602100069	2
73	142	0.002148100069	1
73	142	0.002148100069	0
73	303	0.005182324624	1
73	304	0.005182324624	2
73	313	0.005728324624	1
73	313	0.005728324624	0
74	125	0.001602100069	1
74	127	0.001602100069	2
74	143	0.002148100069	1
74	143	0.002148100069	0
74	267	0.004526266849	1
74	269	0.004526266849	2
74	283	0.005072266849	1
74	283	0.005072266849	0
74	400	0.007390458048	1
74	401	0.007390458048	2
74	408	0.007936458048	1
74	408	0.007936458048	0
75	151	0.002148133425	59
75	188	0.0029441912	59
75	231	0.003868233493	59
75	318	0.00572835798	59
75	373	0.006772449111	59
75	423	0.007936524761	59
76	153	0.002148133425	59
76	187	0.0029441912	59
76	230	0.003868233493	59
76	293	0.005072300205	59
76	328	0.005728391337	59
76	413	0.007936491404	59
76	466	0.010280582535	59
77	165	0.002398133425	1
77	166	0.002398133425	2
77	175	0.002944133425	1
77	175	0.002944133425	0
78	183	0.002944166781	1
78	233	0.003868233493	2
78	321	0.00572835798	3
78	369	0.006772424692	4
78	416	0.007936491404	5
78	462	0.010280558116	6
79	190	0.002944200138	59
79	292	0.005072300205	59
79	325	0.005728382399	59
79	366	0.006772424692	59
79	421	0.007936515823	59
79	460	0.010280558116	59
80	217	0.003322200137	1
80	218	0.003322200137	2
80	225	0.003868200137	1
80	225	0.003868200137	0
81	240	0.00386826685	59
81	294	0.005072300205	59
81	319	0.00572835798	59
81	374	0.006772449111	59
81	414	0.007936491404	59
81	467	0.010280582535	59

