version 2
run Wireless01-5-20200707-18:59:26-9974
attr configname Wireless01
attr datetime 20200707-18:59:26
attr experiment Wireless01
attr inifile omnetpp.ini
attr iterationvars $name=Wireless_6_5
attr iterationvarsf name=Wireless#_6#_5-
attr measurement $name=Wireless_6_5
attr network "${name=WirelessA, Wireless_3_1, Wireless_3_5, Wireless_3_10, Wireless_6_1,Wireless_6_5,Wireless_6_10,Wireless_12_1,Wireless_12_5,Wireless_12_10}"
attr processid 9974
attr repetition 0
attr replication #0
attr resultdir results
attr runnumber 5
attr seedset 5
itervar name Wireless_6_5
param *.hostA.numApps 1
param *.hostA.app[0].typename "\"TDOAApp\""
param *.hostA.app[0].destAddresses "\"Broadcast\""
param *.hostA.app[0].destPort 5000
param *.hostA.app[0].localPort 6000
param *.hostA.app[0].isReceiver false
param *.hostA.app[0].Nome_arquivo "\"Wireless_6_5.csv\""
param *.host*.numApps 1
param *.host*.app[0].typename "\"TDOAApp\""
param *.host*.app[0].localPort 5000
param *.host*.app[0].destPort 6000
param *.host*.app[0].destAddresses "\"hostA\""
param *.host*.app[0].isReceiver true
param *.host*.wlan[0].typename "\"WirelessInterface\""
param *.radioMedium.typename "\"ApskScalarRadioMedium\""
param *.radioMedium.backgroundNoise.power -90dBm
param *.radioMedium.mediumLimitCache.centerFrequency 2GHz
param *.host*.wlan[0].radio.typename "\"ApskScalarRadio\""
param *.host*.wlan[0].radio.centerFrequency 2GHz
param *.host*.wlan[0].radio.bandwidth 2MHz
param *.host*.wlan[0].radio.transmitter.power 1.4mW
param *.host*.wlan[0].radio.transmitter.preambleDuration 10us
param *.host*.wlan[0].radio.transmitter.headerLength 8B
param *.host*.wlan[0].radio.receiver.sensitivity -85dBm
param *.host*.wlan[0].radio.receiver.energyDetection -85dBm
param *.host*.wlan[0].radio.receiver.snirThreshold 4dB
param *.host*.wlan[0].mac.typename "\"CsmaCaMac\""
param *.host*.wlan[0].mac.ackTimeout 300us
param *.host*.wlan[0].mac.useAck true
param *.host*.wlan[0].mac.fullDuplex false
param *.host*.wlan[0].radio.receiver.ignoreInterference true
param *.host*.wlan[0].mac.headerLength 23B
param *.host*.**.bitrate 1Mbps
param *.host*.ipv4.arp.typename "\"GlobalArp\""
param **.ip.limitedBroadcast true

vector 0 Wireless_6_5.hostA.wlan[0].radio radioMode:vector ETV
attr interpolationmode sample-hold
attr source radioModeChanged
attr title "Radio mode, vector"
vector 1 Wireless_6_5.hostB.wlan[0].radio radioMode:vector ETV
attr interpolationmode sample-hold
attr source radioModeChanged
attr title "Radio mode, vector"
vector 2 Wireless_6_5.hostC.wlan[0].radio radioMode:vector ETV
attr interpolationmode sample-hold
attr source radioModeChanged
attr title "Radio mode, vector"
vector 3 Wireless_6_5.hostD.wlan[0].radio radioMode:vector ETV
attr interpolationmode sample-hold
attr source radioModeChanged
attr title "Radio mode, vector"
vector 4 Wireless_6_5.hostE.wlan[0].radio radioMode:vector ETV
attr interpolationmode sample-hold
attr source radioModeChanged
attr title "Radio mode, vector"
vector 5 Wireless_6_5.hostF.wlan[0].radio radioMode:vector ETV
attr interpolationmode sample-hold
attr source radioModeChanged
attr title "Radio mode, vector"
vector 6 Wireless_6_5.hostG.wlan[0].radio radioMode:vector ETV
attr interpolationmode sample-hold
attr source radioModeChanged
attr title "Radio mode, vector"
vector 7 Wireless_6_5.hostA.wlan[0].radio receptionState:vector ETV
attr interpolationmode sample-hold
attr source receptionStateChanged
attr title "Radio reception state, vector"
vector 8 Wireless_6_5.hostB.wlan[0].radio receptionState:vector ETV
attr interpolationmode sample-hold
attr source receptionStateChanged
attr title "Radio reception state, vector"
vector 9 Wireless_6_5.hostC.wlan[0].radio receptionState:vector ETV
attr interpolationmode sample-hold
attr source receptionStateChanged
attr title "Radio reception state, vector"
vector 10 Wireless_6_5.hostD.wlan[0].radio receptionState:vector ETV
attr interpolationmode sample-hold
attr source receptionStateChanged
attr title "Radio reception state, vector"
vector 11 Wireless_6_5.hostE.wlan[0].radio receptionState:vector ETV
attr interpolationmode sample-hold
attr source receptionStateChanged
attr title "Radio reception state, vector"
vector 12 Wireless_6_5.hostF.wlan[0].radio receptionState:vector ETV
attr interpolationmode sample-hold
attr source receptionStateChanged
attr title "Radio reception state, vector"
vector 13 Wireless_6_5.hostG.wlan[0].radio receptionState:vector ETV
attr interpolationmode sample-hold
attr source receptionStateChanged
attr title "Radio reception state, vector"
vector 14 Wireless_6_5.hostA.udp packetSent:vector(packetBytes) ETV
attr interpolationmode none
attr source packetSent
attr title "packets sent, vector(packetBytes)"
vector 15 Wireless_6_5.hostA.lo[0].lo rcvdPkFromHl:vector(packetBytes) ETV
attr interpolationmode none
attr source packetReceivedFromUpper
attr title "packets received from higher layer, vector(packetBytes)"
vector 16 Wireless_6_5.hostA.lo[0].lo passedUpPk:vector(packetBytes) ETV
attr interpolationmode none
attr source packetSentToUpper
attr title "packets passed to higher layer, vector(packetBytes)"
vector 17 Wireless_6_5.hostA.wlan[0].mac.queue packetPushed:vector(packetBytes) ETV
attr interpolationmode none
attr title "packet pushed, vector(packetBytes)"
vector 18 Wireless_6_5.hostA.wlan[0].mac.queue queueLength:vector ETV
attr interpolationmode sample-hold
attr source "count(packetPushed) - count(packetPopped) - count(packetRemoved) - count(packetDropped)"
attr title "queue length, vector"
vector 19 Wireless_6_5.hostA.wlan[0].mac.queue packetPopped:vector(packetBytes) ETV
attr interpolationmode none
attr title "packet popped, vector(packetBytes)"
vector 20 Wireless_6_5.hostA.wlan[0].mac.queue queueingTime:vector ETV
attr interpolationmode none
attr source queueingTime(packetPopped)
attr title "queueing times, vector"
attr unit s
vector 21 Wireless_6_5.hostA.udp packetReceived:vector(packetBytes) ETV
attr interpolationmode none
attr source packetReceived
attr title "packets received, vector(packetBytes)"
vector 22 Wireless_6_5.hostA.udp droppedPkWrongPort:vector(count) ETV
attr interpolationmode none
attr source packetDropReasonIsNoPortFound(packetDropped)
attr title "packets dropped (wrong port), vector(count)"
vector 23 Wireless_6_5.hostA.wlan[0].radio transmissionState:vector ETV
attr interpolationmode sample-hold
attr source transmissionStateChanged
attr title "Radio transmission state, vector"
vector 24 Wireless_6_5.hostB.udp packetReceived:vector(packetBytes) ETV
attr interpolationmode none
attr source packetReceived
attr title "packets received, vector(packetBytes)"
vector 25 Wireless_6_5.hostB.udp passedUpPk:vector(count) ETV
attr interpolationmode none
attr source packetSentToUpper
attr title "packets passed up, vector(count)"
vector 26 Wireless_6_5.hostC.udp packetReceived:vector(packetBytes) ETV
attr interpolationmode none
attr source packetReceived
attr title "packets received, vector(packetBytes)"
vector 27 Wireless_6_5.hostC.udp passedUpPk:vector(count) ETV
attr interpolationmode none
attr source packetSentToUpper
attr title "packets passed up, vector(count)"
vector 28 Wireless_6_5.hostD.udp packetReceived:vector(packetBytes) ETV
attr interpolationmode none
attr source packetReceived
attr title "packets received, vector(packetBytes)"
vector 29 Wireless_6_5.hostD.udp passedUpPk:vector(count) ETV
attr interpolationmode none
attr source packetSentToUpper
attr title "packets passed up, vector(count)"
vector 30 Wireless_6_5.hostE.udp packetReceived:vector(packetBytes) ETV
attr interpolationmode none
attr source packetReceived
attr title "packets received, vector(packetBytes)"
vector 31 Wireless_6_5.hostE.udp passedUpPk:vector(count) ETV
attr interpolationmode none
attr source packetSentToUpper
attr title "packets passed up, vector(count)"
vector 32 Wireless_6_5.hostF.udp packetReceived:vector(packetBytes) ETV
attr interpolationmode none
attr source packetReceived
attr title "packets received, vector(packetBytes)"
vector 33 Wireless_6_5.hostF.udp passedUpPk:vector(count) ETV
attr interpolationmode none
attr source packetSentToUpper
attr title "packets passed up, vector(count)"
vector 34 Wireless_6_5.hostG.udp packetReceived:vector(packetBytes) ETV
attr interpolationmode none
attr source packetReceived
attr title "packets received, vector(packetBytes)"
vector 35 Wireless_6_5.hostG.udp passedUpPk:vector(count) ETV
attr interpolationmode none
attr source packetSentToUpper
attr title "packets passed up, vector(count)"
vector 36 Wireless_6_5.hostB.udp packetSent:vector(packetBytes) ETV
attr interpolationmode none
attr source packetSent
attr title "packets sent, vector(packetBytes)"
vector 37 Wireless_6_5.hostC.udp packetSent:vector(packetBytes) ETV
attr interpolationmode none
attr source packetSent
attr title "packets sent, vector(packetBytes)"
vector 38 Wireless_6_5.hostD.udp packetSent:vector(packetBytes) ETV
attr interpolationmode none
attr source packetSent
attr title "packets sent, vector(packetBytes)"
vector 39 Wireless_6_5.hostE.udp packetSent:vector(packetBytes) ETV
attr interpolationmode none
attr source packetSent
attr title "packets sent, vector(packetBytes)"
vector 40 Wireless_6_5.hostF.udp packetSent:vector(packetBytes) ETV
attr interpolationmode none
attr source packetSent
attr title "packets sent, vector(packetBytes)"
vector 41 Wireless_6_5.hostG.udp packetSent:vector(packetBytes) ETV
attr interpolationmode none
attr source packetSent
attr title "packets sent, vector(packetBytes)"
vector 42 Wireless_6_5.hostB.wlan[0].mac.queue packetPushed:vector(packetBytes) ETV
attr interpolationmode none
attr title "packet pushed, vector(packetBytes)"
vector 43 Wireless_6_5.hostB.wlan[0].mac.queue queueLength:vector ETV
attr interpolationmode sample-hold
attr source "count(packetPushed) - count(packetPopped) - count(packetRemoved) - count(packetDropped)"
attr title "queue length, vector"
vector 44 Wireless_6_5.hostB.wlan[0].mac.queue packetPopped:vector(packetBytes) ETV
attr interpolationmode none
attr title "packet popped, vector(packetBytes)"
vector 45 Wireless_6_5.hostB.wlan[0].mac.queue queueingTime:vector ETV
attr interpolationmode none
attr source queueingTime(packetPopped)
attr title "queueing times, vector"
attr unit s
vector 46 Wireless_6_5.hostC.wlan[0].mac.queue packetPushed:vector(packetBytes) ETV
attr interpolationmode none
attr title "packet pushed, vector(packetBytes)"
vector 47 Wireless_6_5.hostC.wlan[0].mac.queue queueLength:vector ETV
attr interpolationmode sample-hold
attr source "count(packetPushed) - count(packetPopped) - count(packetRemoved) - count(packetDropped)"
attr title "queue length, vector"
vector 48 Wireless_6_5.hostC.wlan[0].mac.queue packetPopped:vector(packetBytes) ETV
attr interpolationmode none
attr title "packet popped, vector(packetBytes)"
vector 49 Wireless_6_5.hostC.wlan[0].mac.queue queueingTime:vector ETV
attr interpolationmode none
attr source queueingTime(packetPopped)
attr title "queueing times, vector"
attr unit s
vector 50 Wireless_6_5.hostD.wlan[0].mac.queue packetPushed:vector(packetBytes) ETV
attr interpolationmode none
attr title "packet pushed, vector(packetBytes)"
vector 51 Wireless_6_5.hostD.wlan[0].mac.queue queueLength:vector ETV
attr interpolationmode sample-hold
attr source "count(packetPushed) - count(packetPopped) - count(packetRemoved) - count(packetDropped)"
attr title "queue length, vector"
vector 52 Wireless_6_5.hostD.wlan[0].mac.queue packetPopped:vector(packetBytes) ETV
attr interpolationmode none
attr title "packet popped, vector(packetBytes)"
vector 53 Wireless_6_5.hostD.wlan[0].mac.queue queueingTime:vector ETV
attr interpolationmode none
attr source queueingTime(packetPopped)
attr title "queueing times, vector"
attr unit s
vector 54 Wireless_6_5.hostE.wlan[0].mac.queue packetPushed:vector(packetBytes) ETV
attr interpolationmode none
attr title "packet pushed, vector(packetBytes)"
vector 55 Wireless_6_5.hostE.wlan[0].mac.queue queueLength:vector ETV
attr interpolationmode sample-hold
attr source "count(packetPushed) - count(packetPopped) - count(packetRemoved) - count(packetDropped)"
attr title "queue length, vector"
vector 56 Wireless_6_5.hostE.wlan[0].mac.queue packetPopped:vector(packetBytes) ETV
attr interpolationmode none
attr title "packet popped, vector(packetBytes)"
vector 57 Wireless_6_5.hostE.wlan[0].mac.queue queueingTime:vector ETV
attr interpolationmode none
attr source queueingTime(packetPopped)
attr title "queueing times, vector"
attr unit s
vector 58 Wireless_6_5.hostF.wlan[0].mac.queue packetPushed:vector(packetBytes) ETV
attr interpolationmode none
attr title "packet pushed, vector(packetBytes)"
vector 59 Wireless_6_5.hostF.wlan[0].mac.queue queueLength:vector ETV
attr interpolationmode sample-hold
attr source "count(packetPushed) - count(packetPopped) - count(packetRemoved) - count(packetDropped)"
attr title "queue length, vector"
vector 60 Wireless_6_5.hostF.wlan[0].mac.queue packetPopped:vector(packetBytes) ETV
attr interpolationmode none
attr title "packet popped, vector(packetBytes)"
vector 61 Wireless_6_5.hostF.wlan[0].mac.queue queueingTime:vector ETV
attr interpolationmode none
attr source queueingTime(packetPopped)
attr title "queueing times, vector"
attr unit s
vector 62 Wireless_6_5.hostG.wlan[0].mac.queue packetPushed:vector(packetBytes) ETV
attr interpolationmode none
attr title "packet pushed, vector(packetBytes)"
vector 63 Wireless_6_5.hostG.wlan[0].mac.queue queueLength:vector ETV
attr interpolationmode sample-hold
attr source "count(packetPushed) - count(packetPopped) - count(packetRemoved) - count(packetDropped)"
attr title "queue length, vector"
vector 64 Wireless_6_5.hostG.wlan[0].mac.queue packetPopped:vector(packetBytes) ETV
attr interpolationmode none
attr title "packet popped, vector(packetBytes)"
vector 65 Wireless_6_5.hostG.wlan[0].mac.queue queueingTime:vector ETV
attr interpolationmode none
attr source queueingTime(packetPopped)
attr title "queueing times, vector"
attr unit s
vector 66 Wireless_6_5.hostF.wlan[0].radio transmissionState:vector ETV
attr interpolationmode sample-hold
attr source transmissionStateChanged
attr title "Radio transmission state, vector"
vector 67 Wireless_6_5.hostC.wlan[0].mac packetDropNotAddressedToUs:vector(packetBytes) ETV
attr interpolationmode none
attr source packetDropReasonIsNotAddressedToUs(packetDropped)
attr title "packet drop: not addressed to us, vector(packetBytes)"
vector 68 Wireless_6_5.hostG.wlan[0].mac packetDropNotAddressedToUs:vector(packetBytes) ETV
attr interpolationmode none
attr source packetDropReasonIsNotAddressedToUs(packetDropped)
attr title "packet drop: not addressed to us, vector(packetBytes)"
vector 69 Wireless_6_5.hostA.udp passedUpPk:vector(count) ETV
attr interpolationmode none
attr source packetSentToUpper
attr title "packets passed up, vector(count)"
vector 70 Wireless_6_5.hostB.wlan[0].mac packetDropNotAddressedToUs:vector(packetBytes) ETV
attr interpolationmode none
attr source packetDropReasonIsNotAddressedToUs(packetDropped)
attr title "packet drop: not addressed to us, vector(packetBytes)"
vector 71 Wireless_6_5.hostD.wlan[0].mac packetDropNotAddressedToUs:vector(packetBytes) ETV
attr interpolationmode none
attr source packetDropReasonIsNotAddressedToUs(packetDropped)
attr title "packet drop: not addressed to us, vector(packetBytes)"
vector 72 Wireless_6_5.hostE.wlan[0].mac packetDropNotAddressedToUs:vector(packetBytes) ETV
attr interpolationmode none
attr source packetDropReasonIsNotAddressedToUs(packetDropped)
attr title "packet drop: not addressed to us, vector(packetBytes)"
vector 73 Wireless_6_5.hostC.wlan[0].radio transmissionState:vector ETV
attr interpolationmode sample-hold
attr source transmissionStateChanged
attr title "Radio transmission state, vector"
vector 74 Wireless_6_5.hostF.wlan[0].mac packetDropNotAddressedToUs:vector(packetBytes) ETV
attr interpolationmode none
attr source packetDropReasonIsNotAddressedToUs(packetDropped)
attr title "packet drop: not addressed to us, vector(packetBytes)"
vector 75 Wireless_6_5.hostD.wlan[0].radio transmissionState:vector ETV
attr interpolationmode sample-hold
attr source transmissionStateChanged
attr title "Radio transmission state, vector"
vector 76 Wireless_6_5.hostE.wlan[0].radio transmissionState:vector ETV
attr interpolationmode sample-hold
attr source transmissionStateChanged
attr title "Radio transmission state, vector"
vector 77 Wireless_6_5.hostB.wlan[0].radio transmissionState:vector ETV
attr interpolationmode sample-hold
attr source transmissionStateChanged
attr title "Radio transmission state, vector"
vector 78 Wireless_6_5.hostG.wlan[0].radio transmissionState:vector ETV
attr interpolationmode sample-hold
attr source transmissionStateChanged
attr title "Radio transmission state, vector"
vector 79 Wireless_6_5.hostA.wlan[0].mac packetDropIncorrectlyReceived:vector(packetBytes) ETV
attr interpolationmode none
attr source packetDropReasonIsIncorrectlyReceived(packetDropped)
attr title "packet drop: incorrectly received, vector(packetBytes)"
vector 80 Wireless_6_5.hostD.wlan[0].mac packetDropIncorrectlyReceived:vector(packetBytes) ETV
attr interpolationmode none
attr source packetDropReasonIsIncorrectlyReceived(packetDropped)
attr title "packet drop: incorrectly received, vector(packetBytes)"
vector 81 Wireless_6_5.hostC.wlan[0].mac packetDropIncorrectlyReceived:vector(packetBytes) ETV
attr interpolationmode none
attr source packetDropReasonIsIncorrectlyReceived(packetDropped)
attr title "packet drop: incorrectly received, vector(packetBytes)"
0	0	0	0
0	0	0	0
0	0	0	2
0	22	0.00037	3
0	30	0.000916	2
0	109	0.001882033356	3
0	117	0.002100033356	2
0	159	0.002746066712	3
0	167	0.002964066712	2
0	208	0.003610100068	3
0	216	0.003828100068	2
0	256	0.004574133424	3
0	264	0.004792133424	2
0	342	0.00713416678	3
0	350	0.00735216678	2
0	388	0.007978200136	3
0	396	0.008196200136	2
1	0	0	0
1	0	0	0
1	0	0	2
1	279	0.004862150102	3
1	295	0.005408150102	2
1	364	0.007422183458	3
1	372	0.007968183458	2
2	0	0	0
2	0	0	0
2	0	0	2
2	135	0.002190050034	3
2	143	0.002736050034	2
3	0	0	0
3	0	0	0
3	0	0	2
3	184	0.00305408339	3
3	192	0.00360008339	2
4	0	0	0
4	0	0	0
4	0	0	2
4	232	0.004018116746	3
4	240	0.004564116746	2
5	0	0	0
5	0	0	0
5	0	0	2
5	85	0.001326016678	3
5	93	0.001872016678	2
6	0	0	0
6	0	0	0
6	0	0	2
6	280	0.004862150102	3
6	296	0.005408150102	2
6	318	0.006578150102	3
6	326	0.007124150102	2
7	0	0	1
7	22	0.00037	0
7	30	0.000916	1
7	87	0.001326033356	3
7	94	0.001872033356	1
7	109	0.001882033356	0
7	117	0.002100033356	1
7	137	0.002190066712	3
7	144	0.002736066712	1
7	159	0.002746066712	0
7	167	0.002964066712	1
7	186	0.003054100068	3
7	193	0.003600100068	1
7	208	0.003610100068	0
7	216	0.003828100068	1
7	234	0.004018133424	3
7	241	0.004564133424	1
7	256	0.004574133424	0
7	264	0.004792133424	1
7	283	0.00486216678	3
7	297	0.00540816678	1
7	320	0.00657816678	3
7	327	0.00712416678	1
7	342	0.00713416678	0
7	350	0.00735216678	1
7	366	0.007422200136	3
7	373	0.007968200136	1
7	388	0.007978200136	0
7	396	0.008196200136	1
8	0	0	1
8	24	0.000370016678	3
8	31	0.000916016678	1
8	90	0.001326045565	3
8	103	0.001872045565	1
8	111	0.001882050034	3
8	118	0.002100050034	1
8	142	0.00219008339	3
8	157	0.00273608339	1
8	161	0.00274608339	3
8	168	0.00296408339	1
8	189	0.003054112277	3
8	202	0.003600112277	1
8	210	0.003610116746	3
8	217	0.003828116746	1
8	235	0.004018133424	3
8	242	0.004564133424	1
8	258	0.004574150102	3
8	265	0.004792150102	1
8	279	0.004862150102	0
8	295	0.005408150102	2
8	301	0.00540816678	1
8	321	0.00657816678	3
8	328	0.00712416678	1
8	344	0.007134183458	3
8	351	0.007352183458	1
8	364	0.007422183458	0
8	372	0.007968183458	1
8	390	0.007978216814	3
8	397	0.008196216814	1
9	0	0	1
9	25	0.000370016678	3
9	32	0.000916016678	1
9	88	0.001326033356	3
9	95	0.001872033356	1
9	112	0.001882050034	3
9	119	0.002100050034	1
9	135	0.002190050034	0
9	143	0.002736050034	1
9	162	0.00274608339	3
9	169	0.00296408339	1
9	187	0.003054100068	3
9	194	0.003600100068	1
9	211	0.003610116746	3
9	218	0.003828116746	1
9	237	0.004018145633	3
9	250	0.004564145633	1
9	259	0.004574150102	3
9	266	0.004792150102	1
9	291	0.004862178989	3
9	308	0.005408178989	2
9	312	0.005408183458	1
9	323	0.006578178989	3
9	336	0.007124178989	1
9	345	0.007134183458	3
9	352	0.007352183458	1
9	371	0.007422216814	3
9	386	0.007968216814	1
9	391	0.007978216814	3
9	398	0.008196216814	1
10	0	0	1
10	26	0.000370016678	3
10	33	0.000916016678	1
10	91	0.001326045565	3
10	104	0.001872045565	1
10	113	0.001882050034	3
10	120	0.002100050034	1
10	138	0.002190066712	3
10	145	0.002736066712	1
10	163	0.00274608339	3
10	170	0.00296408339	1
10	184	0.00305408339	0
10	192	0.00360008339	1
10	212	0.003610116746	3
10	219	0.003828116746	1
10	236	0.004018133424	3
10	243	0.004564133424	1
10	260	0.004574150102	3
10	267	0.004792150102	1
10	289	0.004862178989	3
10	306	0.005408178989	2
10	313	0.005408183458	1
10	325	0.006578183458	3
10	340	0.007124183458	1
10	346	0.007134183458	3
10	353	0.007352183458	1
10	369	0.007422212345	3
10	382	0.007968212345	1
10	392	0.007978216814	3
10	399	0.008196216814	1
11	0	0	1
11	27	0.000370016678	3
11	34	0.000916016678	1
11	92	0.001326050034	3
11	107	0.001872050034	1
11	114	0.001882050034	3
11	121	0.002100050034	1
11	140	0.002190078921	3
11	153	0.002736078921	1
11	164	0.00274608339	3
11	171	0.00296408339	1
11	188	0.003054100068	3
11	195	0.003600100068	1
11	213	0.003610116746	3
11	220	0.003828116746	1
11	232	0.004018116746	0
11	240	0.004564116746	1
11	261	0.004574150102	3
11	268	0.004792150102	1
11	284	0.00486216678	3
11	298	0.00540816678	2
11	309	0.005408178989	1
11	324	0.006578178989	3
11	337	0.007124178989	1
11	347	0.007134183458	3
11	354	0.007352183458	1
11	367	0.007422200136	3
11	374	0.007968200136	1
11	393	0.007978216814	3
11	400	0.008196216814	1
12	0	0	1
12	28	0.000370016678	3
12	35	0.000916016678	1
12	85	0.001326016678	0
12	93	0.001872016678	1
12	115	0.001882050034	3
12	122	0.002100050034	1
12	139	0.002190066712	3
12	146	0.002736066712	1
12	165	0.00274608339	3
12	172	0.00296408339	1
12	190	0.003054112277	3
12	203	0.003600112277	1
12	214	0.003610116746	3
12	221	0.003828116746	1
12	239	0.004018150102	3
12	254	0.004564150102	1
12	262	0.004574150102	3
12	269	0.004792150102	1
12	288	0.00486216678	3
12	302	0.00540816678	2
12	307	0.005408178989	1
12	322	0.00657816678	3
12	329	0.00712416678	1
12	348	0.007134183458	3
12	355	0.007352183458	1
12	370	0.007422212345	3
12	383	0.007968212345	1
12	394	0.007978216814	3
12	401	0.008196216814	1
13	0	0	1
13	29	0.000370016678	3
13	36	0.000916016678	1
13	89	0.001326033356	3
13	96	0.001872033356	1
13	116	0.001882050034	3
13	123	0.002100050034	1
13	141	0.002190078921	3
13	154	0.002736078921	1
13	166	0.00274608339	3
13	173	0.00296408339	1
13	191	0.003054116746	3
13	206	0.003600116746	1
13	215	0.003610116746	3
13	222	0.003828116746	1
13	238	0.004018145633	3
13	251	0.004564145633	1
13	263	0.004574150102	3
13	270	0.004792150102	1
13	280	0.004862150102	0
13	296	0.005408150102	2
13	299	0.00540816678	1
13	318	0.006578150102	0
13	326	0.007124150102	1
13	349	0.007134183458	3
13	356	0.007352183458	1
13	368	0.007422200136	3
13	375	0.007968200136	1
13	395	0.007978216814	3
13	402	0.008196216814	1
14	3	0	12
15	17	0	32
16	17	0	32
17	18	0	59
18	18	0	1
18	18	0	0
19	18	0	59
20	18	0	0
21	20	0	12
21	101	0.001872033356	12
21	151	0.002736066712	12
21	200	0.003600100068	12
21	248	0.004564133424	12
21	334	0.00712416678	12
21	380	0.007968200136	12
22	20	0	1
23	22	0.00037	1
23	23	0.00037	2
23	30	0.000916	1
23	30	0.000916	0
23	109	0.001882033356	1
23	110	0.001882033356	2
23	117	0.002100033356	1
23	117	0.002100033356	0
23	159	0.002746066712	1
23	160	0.002746066712	2
23	167	0.002964066712	1
23	167	0.002964066712	0
23	208	0.003610100068	1
23	209	0.003610100068	2
23	216	0.003828100068	1
23	216	0.003828100068	0
23	256	0.004574133424	1
23	257	0.004574133424	2
23	264	0.004792133424	1
23	264	0.004792133424	0
23	342	0.00713416678	1
23	343	0.00713416678	2
23	350	0.00735216678	1
23	350	0.00735216678	0
23	388	0.007978200136	1
23	389	0.007978200136	2
23	396	0.008196200136	1
23	396	0.008196200136	0
24	49	0.000916016678	12
25	49	0.000916016678	1
26	50	0.000916016678	12
27	50	0.000916016678	1
28	51	0.000916016678	12
29	51	0.000916016678	1
30	52	0.000916016678	12
31	52	0.000916016678	1
32	53	0.000916016678	12
33	53	0.000916016678	1
34	54	0.000916016678	12
35	54	0.000916016678	1
36	61	0.000916016678	12
37	62	0.000916016678	12
38	63	0.000916016678	12
39	64	0.000916016678	12
40	65	0.000916016678	12
41	66	0.000916016678	12
42	73	0.000916016678	59
43	73	0.000916016678	1
43	73	0.000916016678	0
44	73	0.000916016678	59
45	73	0.000916016678	0
46	74	0.000916016678	59
47	74	0.000916016678	1
47	74	0.000916016678	0
48	74	0.000916016678	59
49	74	0.000916016678	0
50	75	0.000916016678	59
51	75	0.000916016678	1
51	75	0.000916016678	0
52	75	0.000916016678	59
53	75	0.000916016678	0
54	76	0.000916016678	59
55	76	0.000916016678	1
55	76	0.000916016678	0
56	76	0.000916016678	59
57	76	0.000916016678	0
58	77	0.000916016678	59
59	77	0.000916016678	1
59	77	0.000916016678	0
60	77	0.000916016678	59
61	77	0.000916016678	0
62	78	0.000916016678	59
63	78	0.000916016678	1
63	78	0.000916016678	0
64	78	0.000916016678	59
65	78	0.000916016678	0
66	85	0.001326016678	1
66	86	0.001326016678	2
66	93	0.001872016678	1
66	93	0.001872016678	0
67	98	0.001872033356	59
67	197	0.003600100068	59
67	252	0.004564145633	59
67	338	0.007124178989	59
67	387	0.007968216814	59
68	99	0.001872033356	59
68	156	0.002736078921	59
68	207	0.003600116746	59
68	253	0.004564145633	59
68	378	0.007968200136	59
69	101	0.001872033356	1
69	151	0.002736066712	2
69	200	0.003600100068	3
69	248	0.004564133424	4
69	334	0.00712416678	5
69	380	0.007968200136	6
70	105	0.001872045565	59
70	158	0.00273608339	59
70	204	0.003600112277	59
70	245	0.004564133424	59
70	331	0.00712416678	59
71	106	0.001872045565	59
71	148	0.002736066712	59
71	246	0.004564133424	59
71	341	0.007124183458	59
71	384	0.007968212345	59
72	108	0.001872050034	59
72	155	0.002736078921	59
72	198	0.003600100068	59
72	304	0.00540816678	59
72	339	0.007124178989	59
72	377	0.007968200136	59
73	135	0.002190050034	1
73	136	0.002190050034	2
73	143	0.002736050034	1
73	143	0.002736050034	0
74	149	0.002736066712	59
74	205	0.003600112277	59
74	255	0.004564150102	59
74	305	0.00540816678	59
74	332	0.00712416678	59
74	385	0.007968212345	59
75	184	0.00305408339	1
75	185	0.00305408339	2
75	192	0.00360008339	1
75	192	0.00360008339	0
76	232	0.004018116746	1
76	233	0.004018116746	2
76	240	0.004564116746	1
76	240	0.004564116746	0
77	279	0.004862150102	1
77	281	0.004862150102	2
77	295	0.005408150102	1
77	295	0.005408150102	0
77	364	0.007422183458	1
77	365	0.007422183458	2
77	372	0.007968183458	1
77	372	0.007968183458	0
78	280	0.004862150102	1
78	282	0.004862150102	2
78	296	0.005408150102	1
78	296	0.005408150102	0
78	318	0.006578150102	1
78	319	0.006578150102	2
78	326	0.007124150102	1
78	326	0.007124150102	0
79	303	0.00540816678	59
80	310	0.005408178989	59
81	311	0.005408178989	59

