version 2
run Wireless01-199-20200717-17:33:25-12108
attr configname Wireless01
attr datetime 20200717-17:33:25
attr experiment Wireless01
attr inifile omnetpp.ini
attr iterationvars $name=Wireless_6_10
attr iterationvarsf name=Wireless#_6#_10-
attr measurement $name=Wireless_6_10
attr network "${name=WirelessA, Wireless_3_1, Wireless_3_5, Wireless_3_10, Wireless_6_1,Wireless_6_5,Wireless_6_10,Wireless_12_1,Wireless_12_5,Wireless_12_10}"
attr processid 12108
attr repetition 19
attr replication #19
attr resultdir results
attr runnumber 199
attr seedset 199
itervar name Wireless_6_10
param *.hostA.numApps 1
param *.hostA.app[0].typename "\"TDOAApp\""
param *.hostA.app[0].destAddresses "\"Broadcast\""
param *.hostA.app[0].destPort 5000
param *.hostA.app[0].localPort 6000
param *.hostA.app[0].isReceiver false
param *.hostA.app[0].Nome_arquivo "\"Wireless_6_10.csv\""
param *.host*.numApps 1
param *.host*.app[0].typename "\"TDOAApp\""
param *.host*.app[0].localPort 5000
param *.host*.app[0].destPort 6000
param *.host*.app[0].destAddresses "\"hostA\""
param *.host*.app[0].isReceiver true
param *.host*.wlan[0].typename "\"WirelessInterface\""
param *.radioMedium.typename "\"ApskScalarRadioMedium\""
param *.radioMedium.backgroundNoise.power -90dBm
param *.radioMedium.mediumLimitCache.centerFrequency 2GHz
param *.host*.wlan[0].radio.typename "\"ApskScalarRadio\""
param *.host*.wlan[0].radio.centerFrequency 2GHz
param *.host*.wlan[0].radio.bandwidth 2MHz
param *.host*.wlan[0].radio.transmitter.power 1.4mW
param *.host*.wlan[0].radio.transmitter.preambleDuration 10us
param *.host*.wlan[0].radio.transmitter.headerLength 8B
param *.host*.wlan[0].radio.receiver.sensitivity -85dBm
param *.host*.wlan[0].radio.receiver.energyDetection -85dBm
param *.host*.wlan[0].radio.receiver.snirThreshold 4dB
param *.host*.wlan[0].mac.typename "\"CsmaCaMac\""
param *.host*.wlan[0].mac.ackTimeout 300us
param *.host*.wlan[0].mac.useAck true
param *.host*.wlan[0].mac.fullDuplex false
param *.host*.wlan[0].radio.receiver.ignoreInterference true
param *.host*.wlan[0].mac.headerLength 23B
param *.host*.**.bitrate 1Mbps
param *.host*.ipv4.arp.typename "\"GlobalArp\""
param **.ip.limitedBroadcast true

vector 0 Wireless_6_10.hostA.wlan[0].radio radioMode:vector ETV
attr interpolationmode sample-hold
attr source radioModeChanged
attr title "Radio mode, vector"
vector 1 Wireless_6_10.hostB.wlan[0].radio radioMode:vector ETV
attr interpolationmode sample-hold
attr source radioModeChanged
attr title "Radio mode, vector"
vector 2 Wireless_6_10.hostC.wlan[0].radio radioMode:vector ETV
attr interpolationmode sample-hold
attr source radioModeChanged
attr title "Radio mode, vector"
vector 3 Wireless_6_10.hostD.wlan[0].radio radioMode:vector ETV
attr interpolationmode sample-hold
attr source radioModeChanged
attr title "Radio mode, vector"
vector 4 Wireless_6_10.hostE.wlan[0].radio radioMode:vector ETV
attr interpolationmode sample-hold
attr source radioModeChanged
attr title "Radio mode, vector"
vector 5 Wireless_6_10.hostF.wlan[0].radio radioMode:vector ETV
attr interpolationmode sample-hold
attr source radioModeChanged
attr title "Radio mode, vector"
vector 6 Wireless_6_10.hostG.wlan[0].radio radioMode:vector ETV
attr interpolationmode sample-hold
attr source radioModeChanged
attr title "Radio mode, vector"
vector 7 Wireless_6_10.hostA.wlan[0].radio receptionState:vector ETV
attr interpolationmode sample-hold
attr source receptionStateChanged
attr title "Radio reception state, vector"
vector 8 Wireless_6_10.hostB.wlan[0].radio receptionState:vector ETV
attr interpolationmode sample-hold
attr source receptionStateChanged
attr title "Radio reception state, vector"
vector 9 Wireless_6_10.hostC.wlan[0].radio receptionState:vector ETV
attr interpolationmode sample-hold
attr source receptionStateChanged
attr title "Radio reception state, vector"
vector 10 Wireless_6_10.hostD.wlan[0].radio receptionState:vector ETV
attr interpolationmode sample-hold
attr source receptionStateChanged
attr title "Radio reception state, vector"
vector 11 Wireless_6_10.hostE.wlan[0].radio receptionState:vector ETV
attr interpolationmode sample-hold
attr source receptionStateChanged
attr title "Radio reception state, vector"
vector 12 Wireless_6_10.hostF.wlan[0].radio receptionState:vector ETV
attr interpolationmode sample-hold
attr source receptionStateChanged
attr title "Radio reception state, vector"
vector 13 Wireless_6_10.hostG.wlan[0].radio receptionState:vector ETV
attr interpolationmode sample-hold
attr source receptionStateChanged
attr title "Radio reception state, vector"
vector 14 Wireless_6_10.hostA.udp packetSent:vector(packetBytes) ETV
attr interpolationmode none
attr source packetSent
attr title "packets sent, vector(packetBytes)"
vector 15 Wireless_6_10.hostA.lo[0].lo rcvdPkFromHl:vector(packetBytes) ETV
attr interpolationmode none
attr source packetReceivedFromUpper
attr title "packets received from higher layer, vector(packetBytes)"
vector 16 Wireless_6_10.hostA.lo[0].lo passedUpPk:vector(packetBytes) ETV
attr interpolationmode none
attr source packetSentToUpper
attr title "packets passed to higher layer, vector(packetBytes)"
vector 17 Wireless_6_10.hostA.wlan[0].mac.queue packetPushed:vector(packetBytes) ETV
attr interpolationmode none
attr title "packet pushed, vector(packetBytes)"
vector 18 Wireless_6_10.hostA.wlan[0].mac.queue queueLength:vector ETV
attr interpolationmode sample-hold
attr source "count(packetPushed) - count(packetPopped) - count(packetRemoved) - count(packetDropped)"
attr title "queue length, vector"
vector 19 Wireless_6_10.hostA.wlan[0].mac.queue packetPopped:vector(packetBytes) ETV
attr interpolationmode none
attr title "packet popped, vector(packetBytes)"
vector 20 Wireless_6_10.hostA.wlan[0].mac.queue queueingTime:vector ETV
attr interpolationmode none
attr source queueingTime(packetPopped)
attr title "queueing times, vector"
attr unit s
vector 21 Wireless_6_10.hostA.udp packetReceived:vector(packetBytes) ETV
attr interpolationmode none
attr source packetReceived
attr title "packets received, vector(packetBytes)"
vector 22 Wireless_6_10.hostA.udp droppedPkWrongPort:vector(count) ETV
attr interpolationmode none
attr source packetDropReasonIsNoPortFound(packetDropped)
attr title "packets dropped (wrong port), vector(count)"
vector 23 Wireless_6_10.hostA.wlan[0].radio transmissionState:vector ETV
attr interpolationmode sample-hold
attr source transmissionStateChanged
attr title "Radio transmission state, vector"
vector 24 Wireless_6_10.hostB.udp packetReceived:vector(packetBytes) ETV
attr interpolationmode none
attr source packetReceived
attr title "packets received, vector(packetBytes)"
vector 25 Wireless_6_10.hostB.udp passedUpPk:vector(count) ETV
attr interpolationmode none
attr source packetSentToUpper
attr title "packets passed up, vector(count)"
vector 26 Wireless_6_10.hostC.udp packetReceived:vector(packetBytes) ETV
attr interpolationmode none
attr source packetReceived
attr title "packets received, vector(packetBytes)"
vector 27 Wireless_6_10.hostC.udp passedUpPk:vector(count) ETV
attr interpolationmode none
attr source packetSentToUpper
attr title "packets passed up, vector(count)"
vector 28 Wireless_6_10.hostD.udp packetReceived:vector(packetBytes) ETV
attr interpolationmode none
attr source packetReceived
attr title "packets received, vector(packetBytes)"
vector 29 Wireless_6_10.hostD.udp passedUpPk:vector(count) ETV
attr interpolationmode none
attr source packetSentToUpper
attr title "packets passed up, vector(count)"
vector 30 Wireless_6_10.hostE.udp packetReceived:vector(packetBytes) ETV
attr interpolationmode none
attr source packetReceived
attr title "packets received, vector(packetBytes)"
vector 31 Wireless_6_10.hostE.udp passedUpPk:vector(count) ETV
attr interpolationmode none
attr source packetSentToUpper
attr title "packets passed up, vector(count)"
vector 32 Wireless_6_10.hostF.udp packetReceived:vector(packetBytes) ETV
attr interpolationmode none
attr source packetReceived
attr title "packets received, vector(packetBytes)"
vector 33 Wireless_6_10.hostF.udp passedUpPk:vector(count) ETV
attr interpolationmode none
attr source packetSentToUpper
attr title "packets passed up, vector(count)"
vector 34 Wireless_6_10.hostG.udp packetReceived:vector(packetBytes) ETV
attr interpolationmode none
attr source packetReceived
attr title "packets received, vector(packetBytes)"
vector 35 Wireless_6_10.hostG.udp passedUpPk:vector(count) ETV
attr interpolationmode none
attr source packetSentToUpper
attr title "packets passed up, vector(count)"
vector 36 Wireless_6_10.hostB.udp packetSent:vector(packetBytes) ETV
attr interpolationmode none
attr source packetSent
attr title "packets sent, vector(packetBytes)"
vector 37 Wireless_6_10.hostC.udp packetSent:vector(packetBytes) ETV
attr interpolationmode none
attr source packetSent
attr title "packets sent, vector(packetBytes)"
vector 38 Wireless_6_10.hostD.udp packetSent:vector(packetBytes) ETV
attr interpolationmode none
attr source packetSent
attr title "packets sent, vector(packetBytes)"
vector 39 Wireless_6_10.hostE.udp packetSent:vector(packetBytes) ETV
attr interpolationmode none
attr source packetSent
attr title "packets sent, vector(packetBytes)"
vector 40 Wireless_6_10.hostF.udp packetSent:vector(packetBytes) ETV
attr interpolationmode none
attr source packetSent
attr title "packets sent, vector(packetBytes)"
vector 41 Wireless_6_10.hostG.udp packetSent:vector(packetBytes) ETV
attr interpolationmode none
attr source packetSent
attr title "packets sent, vector(packetBytes)"
vector 42 Wireless_6_10.hostB.wlan[0].mac.queue packetPushed:vector(packetBytes) ETV
attr interpolationmode none
attr title "packet pushed, vector(packetBytes)"
vector 43 Wireless_6_10.hostB.wlan[0].mac.queue queueLength:vector ETV
attr interpolationmode sample-hold
attr source "count(packetPushed) - count(packetPopped) - count(packetRemoved) - count(packetDropped)"
attr title "queue length, vector"
vector 44 Wireless_6_10.hostB.wlan[0].mac.queue packetPopped:vector(packetBytes) ETV
attr interpolationmode none
attr title "packet popped, vector(packetBytes)"
vector 45 Wireless_6_10.hostB.wlan[0].mac.queue queueingTime:vector ETV
attr interpolationmode none
attr source queueingTime(packetPopped)
attr title "queueing times, vector"
attr unit s
vector 46 Wireless_6_10.hostC.wlan[0].mac.queue packetPushed:vector(packetBytes) ETV
attr interpolationmode none
attr title "packet pushed, vector(packetBytes)"
vector 47 Wireless_6_10.hostC.wlan[0].mac.queue queueLength:vector ETV
attr interpolationmode sample-hold
attr source "count(packetPushed) - count(packetPopped) - count(packetRemoved) - count(packetDropped)"
attr title "queue length, vector"
vector 48 Wireless_6_10.hostC.wlan[0].mac.queue packetPopped:vector(packetBytes) ETV
attr interpolationmode none
attr title "packet popped, vector(packetBytes)"
vector 49 Wireless_6_10.hostC.wlan[0].mac.queue queueingTime:vector ETV
attr interpolationmode none
attr source queueingTime(packetPopped)
attr title "queueing times, vector"
attr unit s
vector 50 Wireless_6_10.hostD.wlan[0].mac.queue packetPushed:vector(packetBytes) ETV
attr interpolationmode none
attr title "packet pushed, vector(packetBytes)"
vector 51 Wireless_6_10.hostD.wlan[0].mac.queue queueLength:vector ETV
attr interpolationmode sample-hold
attr source "count(packetPushed) - count(packetPopped) - count(packetRemoved) - count(packetDropped)"
attr title "queue length, vector"
vector 52 Wireless_6_10.hostD.wlan[0].mac.queue packetPopped:vector(packetBytes) ETV
attr interpolationmode none
attr title "packet popped, vector(packetBytes)"
vector 53 Wireless_6_10.hostD.wlan[0].mac.queue queueingTime:vector ETV
attr interpolationmode none
attr source queueingTime(packetPopped)
attr title "queueing times, vector"
attr unit s
vector 54 Wireless_6_10.hostE.wlan[0].mac.queue packetPushed:vector(packetBytes) ETV
attr interpolationmode none
attr title "packet pushed, vector(packetBytes)"
vector 55 Wireless_6_10.hostE.wlan[0].mac.queue queueLength:vector ETV
attr interpolationmode sample-hold
attr source "count(packetPushed) - count(packetPopped) - count(packetRemoved) - count(packetDropped)"
attr title "queue length, vector"
vector 56 Wireless_6_10.hostE.wlan[0].mac.queue packetPopped:vector(packetBytes) ETV
attr interpolationmode none
attr title "packet popped, vector(packetBytes)"
vector 57 Wireless_6_10.hostE.wlan[0].mac.queue queueingTime:vector ETV
attr interpolationmode none
attr source queueingTime(packetPopped)
attr title "queueing times, vector"
attr unit s
vector 58 Wireless_6_10.hostF.wlan[0].mac.queue packetPushed:vector(packetBytes) ETV
attr interpolationmode none
attr title "packet pushed, vector(packetBytes)"
vector 59 Wireless_6_10.hostF.wlan[0].mac.queue queueLength:vector ETV
attr interpolationmode sample-hold
attr source "count(packetPushed) - count(packetPopped) - count(packetRemoved) - count(packetDropped)"
attr title "queue length, vector"
vector 60 Wireless_6_10.hostF.wlan[0].mac.queue packetPopped:vector(packetBytes) ETV
attr interpolationmode none
attr title "packet popped, vector(packetBytes)"
vector 61 Wireless_6_10.hostF.wlan[0].mac.queue queueingTime:vector ETV
attr interpolationmode none
attr source queueingTime(packetPopped)
attr title "queueing times, vector"
attr unit s
vector 62 Wireless_6_10.hostG.wlan[0].mac.queue packetPushed:vector(packetBytes) ETV
attr interpolationmode none
attr title "packet pushed, vector(packetBytes)"
vector 63 Wireless_6_10.hostG.wlan[0].mac.queue queueLength:vector ETV
attr interpolationmode sample-hold
attr source "count(packetPushed) - count(packetPopped) - count(packetRemoved) - count(packetDropped)"
attr title "queue length, vector"
vector 64 Wireless_6_10.hostG.wlan[0].mac.queue packetPopped:vector(packetBytes) ETV
attr interpolationmode none
attr title "packet popped, vector(packetBytes)"
vector 65 Wireless_6_10.hostG.wlan[0].mac.queue queueingTime:vector ETV
attr interpolationmode none
attr source queueingTime(packetPopped)
attr title "queueing times, vector"
attr unit s
vector 66 Wireless_6_10.hostE.wlan[0].radio transmissionState:vector ETV
attr interpolationmode sample-hold
attr source transmissionStateChanged
attr title "Radio transmission state, vector"
vector 67 Wireless_6_10.hostB.wlan[0].mac packetDropNotAddressedToUs:vector(packetBytes) ETV
attr interpolationmode none
attr source packetDropReasonIsNotAddressedToUs(packetDropped)
attr title "packet drop: not addressed to us, vector(packetBytes)"
vector 68 Wireless_6_10.hostD.wlan[0].mac packetDropNotAddressedToUs:vector(packetBytes) ETV
attr interpolationmode none
attr source packetDropReasonIsNotAddressedToUs(packetDropped)
attr title "packet drop: not addressed to us, vector(packetBytes)"
vector 69 Wireless_6_10.hostA.udp passedUpPk:vector(count) ETV
attr interpolationmode none
attr source packetSentToUpper
attr title "packets passed up, vector(count)"
vector 70 Wireless_6_10.hostC.wlan[0].mac packetDropNotAddressedToUs:vector(packetBytes) ETV
attr interpolationmode none
attr source packetDropReasonIsNotAddressedToUs(packetDropped)
attr title "packet drop: not addressed to us, vector(packetBytes)"
vector 71 Wireless_6_10.hostG.wlan[0].mac packetDropNotAddressedToUs:vector(packetBytes) ETV
attr interpolationmode none
attr source packetDropReasonIsNotAddressedToUs(packetDropped)
attr title "packet drop: not addressed to us, vector(packetBytes)"
vector 72 Wireless_6_10.hostF.wlan[0].mac packetDropNotAddressedToUs:vector(packetBytes) ETV
attr interpolationmode none
attr source packetDropReasonIsNotAddressedToUs(packetDropped)
attr title "packet drop: not addressed to us, vector(packetBytes)"
vector 73 Wireless_6_10.hostD.wlan[0].radio transmissionState:vector ETV
attr interpolationmode sample-hold
attr source transmissionStateChanged
attr title "Radio transmission state, vector"
vector 74 Wireless_6_10.hostF.wlan[0].radio transmissionState:vector ETV
attr interpolationmode sample-hold
attr source transmissionStateChanged
attr title "Radio transmission state, vector"
vector 75 Wireless_6_10.hostA.wlan[0].mac packetDropIncorrectlyReceived:vector(packetBytes) ETV
attr interpolationmode none
attr source packetDropReasonIsIncorrectlyReceived(packetDropped)
attr title "packet drop: incorrectly received, vector(packetBytes)"
vector 76 Wireless_6_10.hostC.wlan[0].mac packetDropIncorrectlyReceived:vector(packetBytes) ETV
attr interpolationmode none
attr source packetDropReasonIsIncorrectlyReceived(packetDropped)
attr title "packet drop: incorrectly received, vector(packetBytes)"
vector 77 Wireless_6_10.hostE.wlan[0].mac packetDropNotAddressedToUs:vector(packetBytes) ETV
attr interpolationmode none
attr source packetDropReasonIsNotAddressedToUs(packetDropped)
attr title "packet drop: not addressed to us, vector(packetBytes)"
vector 78 Wireless_6_10.hostB.wlan[0].mac packetDropIncorrectlyReceived:vector(packetBytes) ETV
attr interpolationmode none
attr source packetDropReasonIsIncorrectlyReceived(packetDropped)
attr title "packet drop: incorrectly received, vector(packetBytes)"
vector 79 Wireless_6_10.hostB.wlan[0].radio transmissionState:vector ETV
attr interpolationmode sample-hold
attr source transmissionStateChanged
attr title "Radio transmission state, vector"
vector 80 Wireless_6_10.hostC.wlan[0].radio transmissionState:vector ETV
attr interpolationmode sample-hold
attr source transmissionStateChanged
attr title "Radio transmission state, vector"
vector 81 Wireless_6_10.hostG.wlan[0].radio transmissionState:vector ETV
attr interpolationmode sample-hold
attr source transmissionStateChanged
attr title "Radio transmission state, vector"
0	0	0	0
0	0	0	0
0	0	0	2
0	22	0.00049	3
0	30	0.001036	2
0	109	0.001722066712	3
0	117	0.001940066712	2
0	199	0.003362191199	3
0	207	0.003580191199	2
0	248	0.004246257911	3
0	256	0.004464257911	2
0	296	0.005190324623	3
0	304	0.005408324623	2
0	343	0.006274391335	3
0	351	0.006492391335	2
0	389	0.007738458047	3
0	397	0.007956458047	2
1	0	0	0
1	0	0	0
1	0	0	2
1	173	0.002806157843	3
1	183	0.003352157843	2
2	0	0	0
2	0	0	0
2	0	0	2
2	224	0.003690224555	3
2	232	0.004236224555	2
3	0	0	0
3	0	0	0
3	0	0	2
3	135	0.002010100068	3
3	151	0.002556100068	2
3	365	0.007182424691	3
3	373	0.007728424691	2
4	0	0	0
4	0	0	0
4	0	0	2
4	85	0.001166033356	3
4	93	0.001712033356	2
5	0	0	0
5	0	0	0
5	0	0	2
5	136	0.002010100068	3
5	152	0.002556100068	2
5	319	0.005718357979	3
5	327	0.006264357979	2
6	0	0	0
6	0	0	0
6	0	0	2
6	272	0.004634291267	3
6	280	0.005180291267	2
7	0	0	1
7	22	0.00049	0
7	30	0.001036	1
7	87	0.001166066712	3
7	94	0.001712066712	1
7	109	0.001722066712	0
7	117	0.001940066712	1
7	139	0.002010133424	3
7	153	0.002556133424	1
7	175	0.002806191199	3
7	184	0.003352191199	1
7	199	0.003362191199	0
7	207	0.003580191199	1
7	226	0.003690257911	3
7	233	0.004236257911	1
7	248	0.004246257911	0
7	256	0.004464257911	1
7	274	0.004634324623	3
7	281	0.005180324623	1
7	296	0.005190324623	0
7	304	0.005408324623	1
7	321	0.005718391335	3
7	328	0.006264391335	1
7	343	0.006274391335	0
7	351	0.006492391335	1
7	367	0.007182458047	3
7	374	0.007728458047	1
7	389	0.007738458047	0
7	397	0.007956458047	1
8	0	0	1
8	24	0.000490033356	3
8	31	0.001036033356	1
8	88	0.001166066712	3
8	95	0.001712066712	1
8	111	0.001722100068	3
8	118	0.001940100068	1
8	145	0.002010157843	3
8	163	0.002556157843	1
8	173	0.002806157843	0
8	183	0.003352157843	1
8	201	0.003362224555	3
8	208	0.003580224555	1
8	231	0.003690291268	3
8	246	0.004236291268	1
8	250	0.004246291267	3
8	257	0.004464291267	1
8	275	0.004634324623	3
8	282	0.005180324623	1
8	298	0.005190357979	3
8	305	0.005408357979	1
8	324	0.005718415754	3
8	337	0.006264415754	1
8	345	0.006274424691	3
8	352	0.006492424691	1
8	370	0.007182482466	3
8	383	0.007728482466	1
8	391	0.007738491403	3
8	398	0.007956491403	1
9	0	0	1
9	25	0.000490033356	3
9	32	0.001036033356	1
9	90	0.001166091131	3
9	103	0.001712091131	1
9	112	0.001722100068	3
9	119	0.001940100068	1
9	140	0.002010133424	3
9	154	0.002556133424	1
9	180	0.002806224556	3
9	197	0.003352224556	1
9	202	0.003362224555	3
9	209	0.003580224555	1
9	224	0.003690224555	0
9	232	0.004236224555	1
9	251	0.004246291267	3
9	258	0.004464291267	1
9	277	0.004634349042	3
9	290	0.005180349042	1
9	299	0.005190357979	3
9	306	0.005408357979	1
9	322	0.005718391335	3
9	329	0.006264391335	1
9	346	0.006274424691	3
9	353	0.006492424691	1
9	368	0.007182458047	3
9	375	0.007728458047	1
9	392	0.007738491403	3
9	399	0.007956491403	1
10	0	0	1
10	26	0.000490033356	3
10	33	0.001036033356	1
10	89	0.001166066712	3
10	96	0.001712066712	1
10	113	0.001722100068	3
10	120	0.001940100068	1
10	135	0.002010100068	0
10	151	0.002556100068	2
10	166	0.002556157843	1
10	178	0.002806215618	3
10	193	0.003352215618	1
10	203	0.003362224555	3
10	210	0.003580224555	1
10	227	0.003690257911	3
10	234	0.004236257911	1
10	252	0.004246291267	3
10	259	0.004464291267	1
10	279	0.00463435798	3
10	294	0.00518035798	1
10	300	0.005190357979	3
10	307	0.005408357979	1
10	325	0.005718415754	3
10	338	0.006264415754	1
10	347	0.006274424691	3
10	354	0.006492424691	1
10	365	0.007182424691	0
10	373	0.007728424691	1
10	393	0.007738491403	3
10	400	0.007956491403	1
11	0	0	1
11	27	0.000490033356	3
11	34	0.001036033356	1
11	85	0.001166033356	0
11	93	0.001712033356	1
11	114	0.001722100068	3
11	121	0.001940100068	1
11	141	0.002010133424	3
11	155	0.002556133424	2
11	169	0.002556166781	1
11	176	0.002806191199	3
11	185	0.003352191199	1
11	204	0.003362224555	3
11	211	0.003580224555	1
11	229	0.00369028233	3
11	242	0.00423628233	1
11	253	0.004246291267	3
11	260	0.004464291267	1
11	278	0.004634349042	3
11	291	0.005180349042	1
11	301	0.005190357979	3
11	308	0.005408357979	1
11	326	0.005718424692	3
11	341	0.006264424692	1
11	348	0.006274424691	3
11	355	0.006492424691	1
11	369	0.007182458047	3
11	376	0.007728458047	1
11	394	0.007738491403	3
11	401	0.007956491403	1
12	0	0	1
12	28	0.000490033356	3
12	35	0.001036033356	1
12	92	0.001166100069	3
12	107	0.001712100069	1
12	115	0.001722100068	3
12	122	0.001940100068	1
12	136	0.002010100068	0
12	152	0.002556100068	2
12	164	0.002556157843	1
12	179	0.002806215618	3
12	194	0.003352215618	1
12	205	0.003362224555	3
12	212	0.003580224555	1
12	228	0.003690257911	3
12	235	0.004236257911	1
12	254	0.004246291267	3
12	261	0.004464291267	1
12	276	0.004634324623	3
12	283	0.005180324623	1
12	302	0.005190357979	3
12	309	0.005408357979	1
12	319	0.005718357979	0
12	327	0.006264357979	1
12	349	0.006274424691	3
12	356	0.006492424691	1
12	371	0.007182482466	3
12	384	0.007728482466	1
12	395	0.007738491403	3
12	402	0.007956491403	1
13	0	0	1
13	29	0.000490033356	3
13	36	0.001036033356	1
13	91	0.001166091131	3
13	104	0.001712091131	1
13	116	0.001722100068	3
13	123	0.001940100068	1
13	144	0.002010133424	3
13	158	0.002556133424	2
13	168	0.002556166781	1
13	177	0.002806191199	3
13	186	0.003352191199	1
13	206	0.003362224555	3
13	213	0.003580224555	1
13	230	0.00369028233	3
13	243	0.00423628233	1
13	255	0.004246291267	3
13	262	0.004464291267	1
13	272	0.004634291267	0
13	280	0.005180291267	1
13	303	0.005190357979	3
13	310	0.005408357979	1
13	323	0.005718391335	3
13	330	0.006264391335	1
13	350	0.006274424691	3
13	357	0.006492424691	1
13	372	0.007182491404	3
13	387	0.007728491404	1
13	396	0.007738491403	3
13	403	0.007956491403	1
14	3	0	12
15	17	0	32
16	17	0	32
17	18	0	59
18	18	0	1
18	18	0	0
19	18	0	59
20	18	0	0
21	20	0	12
21	101	0.001712066712	12
21	191	0.003352191199	12
21	240	0.004236257911	12
21	288	0.005180324623	12
21	335	0.006264391335	12
21	381	0.007728458047	12
22	20	0	1
23	22	0.00049	1
23	23	0.00049	2
23	30	0.001036	1
23	30	0.001036	0
23	109	0.001722066712	1
23	110	0.001722066712	2
23	117	0.001940066712	1
23	117	0.001940066712	0
23	199	0.003362191199	1
23	200	0.003362191199	2
23	207	0.003580191199	1
23	207	0.003580191199	0
23	248	0.004246257911	1
23	249	0.004246257911	2
23	256	0.004464257911	1
23	256	0.004464257911	0
23	296	0.005190324623	1
23	297	0.005190324623	2
23	304	0.005408324623	1
23	304	0.005408324623	0
23	343	0.006274391335	1
23	344	0.006274391335	2
23	351	0.006492391335	1
23	351	0.006492391335	0
23	389	0.007738458047	1
23	390	0.007738458047	2
23	397	0.007956458047	1
23	397	0.007956458047	0
24	49	0.001036033356	12
25	49	0.001036033356	1
26	50	0.001036033356	12
27	50	0.001036033356	1
28	51	0.001036033356	12
29	51	0.001036033356	1
30	52	0.001036033356	12
31	52	0.001036033356	1
32	53	0.001036033356	12
33	53	0.001036033356	1
34	54	0.001036033356	12
35	54	0.001036033356	1
36	61	0.001036033356	12
37	62	0.001036033356	12
38	63	0.001036033356	12
39	64	0.001036033356	12
40	65	0.001036033356	12
41	66	0.001036033356	12
42	73	0.001036033356	59
43	73	0.001036033356	1
43	73	0.001036033356	0
44	73	0.001036033356	59
45	73	0.001036033356	0
46	74	0.001036033356	59
47	74	0.001036033356	1
47	74	0.001036033356	0
48	74	0.001036033356	59
49	74	0.001036033356	0
50	75	0.001036033356	59
51	75	0.001036033356	1
51	75	0.001036033356	0
52	75	0.001036033356	59
53	75	0.001036033356	0
54	76	0.001036033356	59
55	76	0.001036033356	1
55	76	0.001036033356	0
56	76	0.001036033356	59
57	76	0.001036033356	0
58	77	0.001036033356	59
59	77	0.001036033356	1
59	77	0.001036033356	0
60	77	0.001036033356	59
61	77	0.001036033356	0
62	78	0.001036033356	59
63	78	0.001036033356	1
63	78	0.001036033356	0
64	78	0.001036033356	59
65	78	0.001036033356	0
66	85	0.001166033356	1
66	86	0.001166033356	2
66	93	0.001712033356	1
66	93	0.001712033356	0
67	98	0.001712066712	59
67	247	0.004236291268	59
67	285	0.005180324623	59
67	339	0.006264415754	59
67	385	0.007728482466	59
68	99	0.001712066712	59
68	195	0.003352215618	59
68	237	0.004236257911	59
68	295	0.00518035798	59
68	340	0.006264415754	59
69	101	0.001712066712	1
69	191	0.003352191199	2
69	240	0.004236257911	3
69	288	0.005180324623	4
69	335	0.006264391335	5
69	381	0.007728458047	6
70	105	0.001712091131	59
70	198	0.003352224556	59
70	292	0.005180349042	59
70	332	0.006264391335	59
70	378	0.007728458047	59
71	106	0.001712091131	59
71	162	0.002556133424	59
71	189	0.003352191199	59
71	245	0.00423628233	59
71	333	0.006264391335	59
71	388	0.007728491404	59
72	108	0.001712100069	59
72	196	0.003352215618	59
72	238	0.004236257911	59
72	286	0.005180324623	59
72	386	0.007728482466	59
73	135	0.002010100068	1
73	137	0.002010100068	2
73	151	0.002556100068	1
73	151	0.002556100068	0
73	365	0.007182424691	1
73	366	0.007182424691	2
73	373	0.007728424691	1
73	373	0.007728424691	0
74	136	0.002010100068	1
74	138	0.002010100068	2
74	152	0.002556100068	1
74	152	0.002556100068	0
74	319	0.005718357979	1
74	320	0.005718357979	2
74	327	0.006264357979	1
74	327	0.006264357979	0
75	159	0.002556133424	59
76	160	0.002556133424	59
77	161	0.002556133424	59
77	188	0.003352191199	59
77	244	0.00423628233	59
77	293	0.005180349042	59
77	342	0.006264424692	59
77	379	0.007728458047	59
78	167	0.002556157843	59
79	173	0.002806157843	1
79	174	0.002806157843	2
79	183	0.003352157843	1
79	183	0.003352157843	0
80	224	0.003690224555	1
80	225	0.003690224555	2
80	232	0.004236224555	1
80	232	0.004236224555	0
81	272	0.004634291267	1
81	273	0.004634291267	2
81	280	0.005180291267	1
81	280	0.005180291267	0

