version 2
run Wireless01-4-20200701-21:41:02-16886
attr configname Wireless01
attr datetime 20200701-21:41:02
attr experiment Wireless01
attr inifile omnetpp.ini
attr iterationvars $name=Wireless_6_1
attr iterationvarsf name=Wireless#_6#_1-
attr measurement $name=Wireless_6_1
attr network "${name=WirelessA, Wireless_3_1, Wireless_3_5, Wireless_3_10, Wireless_6_1,Wireless_6_5}"
attr processid 16886
attr repetition 0
attr replication #0
attr resultdir results
attr runnumber 4
attr seedset 4
itervar name Wireless_6_1
param *.hostA.numApps 1
param *.hostA.app[0].typename "\"TDOAApp\""
param *.hostA.app[0].destAddresses "\"Broadcast\""
param *.hostA.app[0].destPort 5000
param *.hostA.app[0].localPort 6000
param *.hostA.app[0].isReceiver false
param *.hostA.app[0].Nome_arquivo "\"Wireless_6_1.csv\""
param *.host*.numApps 1
param *.host*.app[0].typename "\"TDOAApp\""
param *.host*.app[0].localPort 5000
param *.host*.app[0].destPort 6000
param *.host*.app[0].destAddresses "\"hostA\""
param *.host*.app[0].isReceiver true
param *.host*.wlan[0].typename "\"WirelessInterface\""
param *.radioMedium.typename "\"ApskScalarRadioMedium\""
param *.radioMedium.backgroundNoise.power -90dBm
param *.radioMedium.mediumLimitCache.centerFrequency 2GHz
param *.host*.wlan[0].radio.typename "\"ApskScalarRadio\""
param *.host*.wlan[0].radio.centerFrequency 2GHz
param *.host*.wlan[0].radio.bandwidth 2MHz
param *.host*.wlan[0].radio.transmitter.power 1.4mW
param *.host*.wlan[0].radio.transmitter.preambleDuration 10us
param *.host*.wlan[0].radio.transmitter.headerLength 8B
param *.host*.wlan[0].radio.receiver.sensitivity -85dBm
param *.host*.wlan[0].radio.receiver.energyDetection -85dBm
param *.host*.wlan[0].radio.receiver.snirThreshold 4dB
param *.host*.wlan[0].mac.typename "\"CsmaCaMac\""
param *.host*.wlan[0].mac.ackTimeout 300us
param *.host*.wlan[0].mac.useAck true
param *.host*.wlan[0].mac.fullDuplex false
param *.host*.wlan[0].radio.receiver.ignoreInterference true
param *.host*.wlan[0].mac.headerLength 23B
param *.host*.**.bitrate 1Mbps
param *.host*.ipv4.arp.typename "\"GlobalArp\""
param **.ip.limitedBroadcast true

vector 0 Wireless_6_1.hostA.wlan[0].radio radioMode:vector ETV
attr interpolationmode sample-hold
attr source radioModeChanged
attr title "Radio mode, vector"
vector 1 Wireless_6_1.hostB.wlan[0].radio radioMode:vector ETV
attr interpolationmode sample-hold
attr source radioModeChanged
attr title "Radio mode, vector"
vector 2 Wireless_6_1.hostC.wlan[0].radio radioMode:vector ETV
attr interpolationmode sample-hold
attr source radioModeChanged
attr title "Radio mode, vector"
vector 3 Wireless_6_1.hostD.wlan[0].radio radioMode:vector ETV
attr interpolationmode sample-hold
attr source radioModeChanged
attr title "Radio mode, vector"
vector 4 Wireless_6_1.hostE.wlan[0].radio radioMode:vector ETV
attr interpolationmode sample-hold
attr source radioModeChanged
attr title "Radio mode, vector"
vector 5 Wireless_6_1.hostF.wlan[0].radio radioMode:vector ETV
attr interpolationmode sample-hold
attr source radioModeChanged
attr title "Radio mode, vector"
vector 6 Wireless_6_1.hostG.wlan[0].radio radioMode:vector ETV
attr interpolationmode sample-hold
attr source radioModeChanged
attr title "Radio mode, vector"
vector 7 Wireless_6_1.hostA.wlan[0].radio receptionState:vector ETV
attr interpolationmode sample-hold
attr source receptionStateChanged
attr title "Radio reception state, vector"
vector 8 Wireless_6_1.hostB.wlan[0].radio receptionState:vector ETV
attr interpolationmode sample-hold
attr source receptionStateChanged
attr title "Radio reception state, vector"
vector 9 Wireless_6_1.hostC.wlan[0].radio receptionState:vector ETV
attr interpolationmode sample-hold
attr source receptionStateChanged
attr title "Radio reception state, vector"
vector 10 Wireless_6_1.hostD.wlan[0].radio receptionState:vector ETV
attr interpolationmode sample-hold
attr source receptionStateChanged
attr title "Radio reception state, vector"
vector 11 Wireless_6_1.hostE.wlan[0].radio receptionState:vector ETV
attr interpolationmode sample-hold
attr source receptionStateChanged
attr title "Radio reception state, vector"
vector 12 Wireless_6_1.hostF.wlan[0].radio receptionState:vector ETV
attr interpolationmode sample-hold
attr source receptionStateChanged
attr title "Radio reception state, vector"
vector 13 Wireless_6_1.hostG.wlan[0].radio receptionState:vector ETV
attr interpolationmode sample-hold
attr source receptionStateChanged
attr title "Radio reception state, vector"
vector 14 Wireless_6_1.hostA.udp packetSent:vector(packetBytes) ETV
attr interpolationmode none
attr source packetSent
attr title "packets sent, vector(packetBytes)"
vector 15 Wireless_6_1.hostA.lo[0].lo rcvdPkFromHl:vector(packetBytes) ETV
attr interpolationmode none
attr source packetReceivedFromUpper
attr title "packets received from higher layer, vector(packetBytes)"
vector 16 Wireless_6_1.hostA.lo[0].lo passedUpPk:vector(packetBytes) ETV
attr interpolationmode none
attr source packetSentToUpper
attr title "packets passed to higher layer, vector(packetBytes)"
vector 17 Wireless_6_1.hostA.wlan[0].mac.queue packetPushed:vector(packetBytes) ETV
attr interpolationmode none
attr title "packet pushed, vector(packetBytes)"
vector 18 Wireless_6_1.hostA.wlan[0].mac.queue queueLength:vector ETV
attr interpolationmode sample-hold
attr source "count(packetPushed) - count(packetPopped) - count(packetRemoved) - count(packetDropped)"
attr title "queue length, vector"
vector 19 Wireless_6_1.hostA.wlan[0].mac.queue packetPopped:vector(packetBytes) ETV
attr interpolationmode none
attr title "packet popped, vector(packetBytes)"
vector 20 Wireless_6_1.hostA.wlan[0].mac.queue queueingTime:vector ETV
attr interpolationmode none
attr source queueingTime(packetPopped)
attr title "queueing times, vector"
attr unit s
vector 21 Wireless_6_1.hostA.udp packetReceived:vector(packetBytes) ETV
attr interpolationmode none
attr source packetReceived
attr title "packets received, vector(packetBytes)"
vector 22 Wireless_6_1.hostA.udp droppedPkWrongPort:vector(count) ETV
attr interpolationmode none
attr source packetDropReasonIsNoPortFound(packetDropped)
attr title "packets dropped (wrong port), vector(count)"
vector 23 Wireless_6_1.hostA.wlan[0].radio transmissionState:vector ETV
attr interpolationmode sample-hold
attr source transmissionStateChanged
attr title "Radio transmission state, vector"
vector 24 Wireless_6_1.hostB.udp packetReceived:vector(packetBytes) ETV
attr interpolationmode none
attr source packetReceived
attr title "packets received, vector(packetBytes)"
vector 25 Wireless_6_1.hostB.udp passedUpPk:vector(count) ETV
attr interpolationmode none
attr source packetSentToUpper
attr title "packets passed up, vector(count)"
vector 26 Wireless_6_1.hostC.udp packetReceived:vector(packetBytes) ETV
attr interpolationmode none
attr source packetReceived
attr title "packets received, vector(packetBytes)"
vector 27 Wireless_6_1.hostC.udp passedUpPk:vector(count) ETV
attr interpolationmode none
attr source packetSentToUpper
attr title "packets passed up, vector(count)"
vector 28 Wireless_6_1.hostD.udp packetReceived:vector(packetBytes) ETV
attr interpolationmode none
attr source packetReceived
attr title "packets received, vector(packetBytes)"
vector 29 Wireless_6_1.hostD.udp passedUpPk:vector(count) ETV
attr interpolationmode none
attr source packetSentToUpper
attr title "packets passed up, vector(count)"
vector 30 Wireless_6_1.hostE.udp packetReceived:vector(packetBytes) ETV
attr interpolationmode none
attr source packetReceived
attr title "packets received, vector(packetBytes)"
vector 31 Wireless_6_1.hostE.udp passedUpPk:vector(count) ETV
attr interpolationmode none
attr source packetSentToUpper
attr title "packets passed up, vector(count)"
vector 32 Wireless_6_1.hostF.udp packetReceived:vector(packetBytes) ETV
attr interpolationmode none
attr source packetReceived
attr title "packets received, vector(packetBytes)"
vector 33 Wireless_6_1.hostF.udp passedUpPk:vector(count) ETV
attr interpolationmode none
attr source packetSentToUpper
attr title "packets passed up, vector(count)"
vector 34 Wireless_6_1.hostG.udp packetReceived:vector(packetBytes) ETV
attr interpolationmode none
attr source packetReceived
attr title "packets received, vector(packetBytes)"
vector 35 Wireless_6_1.hostG.udp passedUpPk:vector(count) ETV
attr interpolationmode none
attr source packetSentToUpper
attr title "packets passed up, vector(count)"
vector 36 Wireless_6_1.hostB.udp packetSent:vector(packetBytes) ETV
attr interpolationmode none
attr source packetSent
attr title "packets sent, vector(packetBytes)"
vector 37 Wireless_6_1.hostC.udp packetSent:vector(packetBytes) ETV
attr interpolationmode none
attr source packetSent
attr title "packets sent, vector(packetBytes)"
vector 38 Wireless_6_1.hostD.udp packetSent:vector(packetBytes) ETV
attr interpolationmode none
attr source packetSent
attr title "packets sent, vector(packetBytes)"
vector 39 Wireless_6_1.hostE.udp packetSent:vector(packetBytes) ETV
attr interpolationmode none
attr source packetSent
attr title "packets sent, vector(packetBytes)"
vector 40 Wireless_6_1.hostF.udp packetSent:vector(packetBytes) ETV
attr interpolationmode none
attr source packetSent
attr title "packets sent, vector(packetBytes)"
vector 41 Wireless_6_1.hostG.udp packetSent:vector(packetBytes) ETV
attr interpolationmode none
attr source packetSent
attr title "packets sent, vector(packetBytes)"
vector 42 Wireless_6_1.hostB.wlan[0].mac.queue packetPushed:vector(packetBytes) ETV
attr interpolationmode none
attr title "packet pushed, vector(packetBytes)"
vector 43 Wireless_6_1.hostB.wlan[0].mac.queue queueLength:vector ETV
attr interpolationmode sample-hold
attr source "count(packetPushed) - count(packetPopped) - count(packetRemoved) - count(packetDropped)"
attr title "queue length, vector"
vector 44 Wireless_6_1.hostB.wlan[0].mac.queue packetPopped:vector(packetBytes) ETV
attr interpolationmode none
attr title "packet popped, vector(packetBytes)"
vector 45 Wireless_6_1.hostB.wlan[0].mac.queue queueingTime:vector ETV
attr interpolationmode none
attr source queueingTime(packetPopped)
attr title "queueing times, vector"
attr unit s
vector 46 Wireless_6_1.hostC.wlan[0].mac.queue packetPushed:vector(packetBytes) ETV
attr interpolationmode none
attr title "packet pushed, vector(packetBytes)"
vector 47 Wireless_6_1.hostC.wlan[0].mac.queue queueLength:vector ETV
attr interpolationmode sample-hold
attr source "count(packetPushed) - count(packetPopped) - count(packetRemoved) - count(packetDropped)"
attr title "queue length, vector"
vector 48 Wireless_6_1.hostC.wlan[0].mac.queue packetPopped:vector(packetBytes) ETV
attr interpolationmode none
attr title "packet popped, vector(packetBytes)"
vector 49 Wireless_6_1.hostC.wlan[0].mac.queue queueingTime:vector ETV
attr interpolationmode none
attr source queueingTime(packetPopped)
attr title "queueing times, vector"
attr unit s
vector 50 Wireless_6_1.hostD.wlan[0].mac.queue packetPushed:vector(packetBytes) ETV
attr interpolationmode none
attr title "packet pushed, vector(packetBytes)"
vector 51 Wireless_6_1.hostD.wlan[0].mac.queue queueLength:vector ETV
attr interpolationmode sample-hold
attr source "count(packetPushed) - count(packetPopped) - count(packetRemoved) - count(packetDropped)"
attr title "queue length, vector"
vector 52 Wireless_6_1.hostD.wlan[0].mac.queue packetPopped:vector(packetBytes) ETV
attr interpolationmode none
attr title "packet popped, vector(packetBytes)"
vector 53 Wireless_6_1.hostD.wlan[0].mac.queue queueingTime:vector ETV
attr interpolationmode none
attr source queueingTime(packetPopped)
attr title "queueing times, vector"
attr unit s
vector 54 Wireless_6_1.hostE.wlan[0].mac.queue packetPushed:vector(packetBytes) ETV
attr interpolationmode none
attr title "packet pushed, vector(packetBytes)"
vector 55 Wireless_6_1.hostE.wlan[0].mac.queue queueLength:vector ETV
attr interpolationmode sample-hold
attr source "count(packetPushed) - count(packetPopped) - count(packetRemoved) - count(packetDropped)"
attr title "queue length, vector"
vector 56 Wireless_6_1.hostE.wlan[0].mac.queue packetPopped:vector(packetBytes) ETV
attr interpolationmode none
attr title "packet popped, vector(packetBytes)"
vector 57 Wireless_6_1.hostE.wlan[0].mac.queue queueingTime:vector ETV
attr interpolationmode none
attr source queueingTime(packetPopped)
attr title "queueing times, vector"
attr unit s
vector 58 Wireless_6_1.hostF.wlan[0].mac.queue packetPushed:vector(packetBytes) ETV
attr interpolationmode none
attr title "packet pushed, vector(packetBytes)"
vector 59 Wireless_6_1.hostF.wlan[0].mac.queue queueLength:vector ETV
attr interpolationmode sample-hold
attr source "count(packetPushed) - count(packetPopped) - count(packetRemoved) - count(packetDropped)"
attr title "queue length, vector"
vector 60 Wireless_6_1.hostF.wlan[0].mac.queue packetPopped:vector(packetBytes) ETV
attr interpolationmode none
attr title "packet popped, vector(packetBytes)"
vector 61 Wireless_6_1.hostF.wlan[0].mac.queue queueingTime:vector ETV
attr interpolationmode none
attr source queueingTime(packetPopped)
attr title "queueing times, vector"
attr unit s
vector 62 Wireless_6_1.hostG.wlan[0].mac.queue packetPushed:vector(packetBytes) ETV
attr interpolationmode none
attr title "packet pushed, vector(packetBytes)"
vector 63 Wireless_6_1.hostG.wlan[0].mac.queue queueLength:vector ETV
attr interpolationmode sample-hold
attr source "count(packetPushed) - count(packetPopped) - count(packetRemoved) - count(packetDropped)"
attr title "queue length, vector"
vector 64 Wireless_6_1.hostG.wlan[0].mac.queue packetPopped:vector(packetBytes) ETV
attr interpolationmode none
attr title "packet popped, vector(packetBytes)"
vector 65 Wireless_6_1.hostG.wlan[0].mac.queue queueingTime:vector ETV
attr interpolationmode none
attr source queueingTime(packetPopped)
attr title "queueing times, vector"
attr unit s
vector 66 Wireless_6_1.hostE.wlan[0].radio transmissionState:vector ETV
attr interpolationmode sample-hold
attr source transmissionStateChanged
attr title "Radio transmission state, vector"
vector 67 Wireless_6_1.hostG.wlan[0].radio transmissionState:vector ETV
attr interpolationmode sample-hold
attr source transmissionStateChanged
attr title "Radio transmission state, vector"
vector 68 Wireless_6_1.hostA.wlan[0].mac packetDropIncorrectlyReceived:vector(packetBytes) ETV
attr interpolationmode none
attr source packetDropReasonIsIncorrectlyReceived(packetDropped)
attr title "packet drop: incorrectly received, vector(packetBytes)"
vector 69 Wireless_6_1.hostB.wlan[0].mac packetDropIncorrectlyReceived:vector(packetBytes) ETV
attr interpolationmode none
attr source packetDropReasonIsIncorrectlyReceived(packetDropped)
attr title "packet drop: incorrectly received, vector(packetBytes)"
vector 70 Wireless_6_1.hostD.wlan[0].mac packetDropNotAddressedToUs:vector(packetBytes) ETV
attr interpolationmode none
attr source packetDropReasonIsNotAddressedToUs(packetDropped)
attr title "packet drop: not addressed to us, vector(packetBytes)"
vector 71 Wireless_6_1.hostF.wlan[0].mac packetDropNotAddressedToUs:vector(packetBytes) ETV
attr interpolationmode none
attr source packetDropReasonIsNotAddressedToUs(packetDropped)
attr title "packet drop: not addressed to us, vector(packetBytes)"
vector 72 Wireless_6_1.hostC.wlan[0].mac packetDropIncorrectlyReceived:vector(packetBytes) ETV
attr interpolationmode none
attr source packetDropReasonIsIncorrectlyReceived(packetDropped)
attr title "packet drop: incorrectly received, vector(packetBytes)"
vector 73 Wireless_6_1.hostD.wlan[0].radio transmissionState:vector ETV
attr interpolationmode sample-hold
attr source transmissionStateChanged
attr title "Radio transmission state, vector"
vector 74 Wireless_6_1.hostC.wlan[0].mac packetDropNotAddressedToUs:vector(packetBytes) ETV
attr interpolationmode none
attr source packetDropReasonIsNotAddressedToUs(packetDropped)
attr title "packet drop: not addressed to us, vector(packetBytes)"
vector 75 Wireless_6_1.hostE.wlan[0].mac packetDropNotAddressedToUs:vector(packetBytes) ETV
attr interpolationmode none
attr source packetDropReasonIsNotAddressedToUs(packetDropped)
attr title "packet drop: not addressed to us, vector(packetBytes)"
vector 76 Wireless_6_1.hostA.udp passedUpPk:vector(count) ETV
attr interpolationmode none
attr source packetSentToUpper
attr title "packets passed up, vector(count)"
vector 77 Wireless_6_1.hostB.wlan[0].mac packetDropNotAddressedToUs:vector(packetBytes) ETV
attr interpolationmode none
attr source packetDropReasonIsNotAddressedToUs(packetDropped)
attr title "packet drop: not addressed to us, vector(packetBytes)"
vector 78 Wireless_6_1.hostG.wlan[0].mac packetDropNotAddressedToUs:vector(packetBytes) ETV
attr interpolationmode none
attr source packetDropReasonIsNotAddressedToUs(packetDropped)
attr title "packet drop: not addressed to us, vector(packetBytes)"
vector 79 Wireless_6_1.hostB.wlan[0].radio transmissionState:vector ETV
attr interpolationmode sample-hold
attr source transmissionStateChanged
attr title "Radio transmission state, vector"
vector 80 Wireless_6_1.hostC.wlan[0].radio transmissionState:vector ETV
attr interpolationmode sample-hold
attr source transmissionStateChanged
attr title "Radio transmission state, vector"
vector 81 Wireless_6_1.hostD.wlan[0].mac packetDropIncorrectlyReceived:vector(packetBytes) ETV
attr interpolationmode none
attr source packetDropReasonIsIncorrectlyReceived(packetDropped)
attr title "packet drop: incorrectly received, vector(packetBytes)"
vector 82 Wireless_6_1.hostF.wlan[0].radio transmissionState:vector ETV
attr interpolationmode sample-hold
attr source transmissionStateChanged
attr title "Radio transmission state, vector"
0	0	0	0
0	0	0	0
0	0	0	2
0	22	0.00017	3
0	30	0.000716	2
0	150	0.002098013343	3
0	158	0.002316013343	2
0	240	0.003918025792	3
0	248	0.004136025792	2
0	289	0.005202032464	3
0	297	0.005420032464	2
0	337	0.006086039136	3
0	345	0.006304039136	2
0	384	0.007050045808	3
0	392	0.007268045808	2
0	430	0.00837405248	3
0	438	0.00859205248	2
1	0	0	0
1	0	0	0
1	0	0	2
1	176	0.002606016679	3
1	192	0.003152016679	2
1	406	0.007818049144	3
1	414	0.008364049144	2
2	0	0	0
2	0	0	0
2	0	0	2
2	177	0.002606016679	3
2	193	0.003152016679	2
2	265	0.004646029128	3
2	273	0.005192029128	2
3	0	0	0
3	0	0	0
3	0	0	2
3	124	0.001542010007	3
3	134	0.002088010007	2
4	0	0	0
4	0	0	0
4	0	0	2
4	85	0.000886003336	3
4	101	0.001432003336	2
4	313	0.0055300358	3
4	321	0.0060760358	2
5	0	0	0
5	0	0	0
5	0	0	2
5	214	0.003362022456	3
5	224	0.003908022456	2
6	0	0	0
6	0	0	0
6	0	0	2
6	86	0.000886003336	3
6	102	0.001432003336	2
6	360	0.006494042472	3
6	368	0.007040042472	2
7	0	0	1
7	22	0.00017	0
7	30	0.000716	1
7	89	0.000886006672	3
7	103	0.001432006672	1
7	126	0.001542013343	3
7	135	0.002088013343	1
7	150	0.002098013343	0
7	158	0.002316013343	1
7	180	0.002606020015	3
7	194	0.003152020015	1
7	216	0.003362025792	3
7	225	0.003908025792	1
7	240	0.003918025792	0
7	248	0.004136025792	1
7	267	0.004646032464	3
7	274	0.005192032464	1
7	289	0.005202032464	0
7	297	0.005420032464	1
7	315	0.005530039136	3
7	322	0.006076039136	1
7	337	0.006086039136	0
7	345	0.006304039136	1
7	362	0.006494045808	3
7	369	0.007040045808	1
7	384	0.007050045808	0
7	392	0.007268045808	1
7	408	0.00781805248	3
7	415	0.00836405248	1
7	430	0.00837405248	0
7	438	0.00859205248	1
8	0	0	1
8	24	0.000170003336	3
8	31	0.000716003336	1
8	90	0.000886006672	3
8	104	0.001432006672	1
8	129	0.001542015784	3
8	144	0.002088015784	1
8	152	0.002098016679	3
8	159	0.002316016679	1
8	176	0.002606016679	0
8	192	0.003152016679	2
8	210	0.00315202335	1
8	219	0.003362028233	3
8	234	0.003908028233	1
8	242	0.003918029128	3
8	249	0.004136029128	1
8	272	0.004646035799	3
8	287	0.005192035799	1
8	291	0.0052020358	3
8	298	0.0054200358	1
8	316	0.005530039136	3
8	323	0.006076039136	1
8	339	0.006086042472	3
8	346	0.006304042472	1
8	363	0.006494045808	3
8	370	0.007040045808	1
8	386	0.007050049144	3
8	393	0.007268049144	1
8	406	0.007818049144	0
8	414	0.008364049144	1
8	432	0.008374055816	3
8	439	0.008592055816	1
9	0	0	1
9	25	0.000170003336	3
9	32	0.000716003336	1
9	95	0.000886009113	3
9	113	0.001432009113	1
9	127	0.001542013343	3
9	136	0.002088013343	1
9	153	0.002098016679	3
9	160	0.002316016679	1
9	177	0.002606016679	0
9	193	0.003152016679	2
9	209	0.00315202335	1
9	217	0.003362025792	3
9	226	0.003908025792	1
9	243	0.003918029128	3
9	250	0.004136029128	1
9	265	0.004646029128	0
9	273	0.005192029128	1
9	292	0.0052020358	3
9	299	0.0054200358	1
9	318	0.005530041577	3
9	331	0.006076041577	1
9	340	0.006086042472	3
9	347	0.006304042472	1
9	365	0.006494048249	3
9	378	0.007040048249	1
9	387	0.007050049144	3
9	394	0.007268049144	1
9	413	0.007818055815	3
9	428	0.008364055815	1
9	433	0.008374055816	3
9	440	0.008592055816	1
10	0	0	1
10	26	0.000170003336	3
10	33	0.000716003336	1
10	91	0.000886006672	3
10	105	0.001432006672	2
10	119	0.001432010007	1
10	124	0.001542010007	0
10	134	0.002088010007	1
10	154	0.002098016679	3
10	161	0.002316016679	1
10	184	0.002606020015	3
10	198	0.003152020015	2
10	205	0.003152022456	1
10	220	0.003362028233	3
10	235	0.003908028233	1
10	244	0.003918029128	3
10	251	0.004136029128	1
10	268	0.004646032464	3
10	275	0.005192032464	1
10	293	0.0052020358	3
10	300	0.0054200358	1
10	317	0.005530039136	3
10	324	0.006076039136	1
10	341	0.006086042472	3
10	348	0.006304042472	1
10	367	0.006494049143	3
10	382	0.007040049143	1
10	388	0.007050049144	3
10	395	0.007268049144	1
10	411	0.007818054921	3
10	424	0.008364054921	1
10	434	0.008374055816	3
10	441	0.008592055816	1
11	0	0	1
11	27	0.000170003336	3
11	34	0.000716003336	1
11	85	0.000886003336	0
11	101	0.001432003336	2
11	116	0.001432009113	1
11	128	0.001542013343	3
11	137	0.002088013343	1
11	155	0.002098016679	3
11	162	0.002316016679	1
11	181	0.002606020015	3
11	195	0.003152020015	2
11	207	0.003152022456	1
11	221	0.003362029127	3
11	238	0.003908029127	1
11	245	0.003918029128	3
11	252	0.004136029128	1
11	270	0.004646034905	3
11	283	0.005192034905	1
11	294	0.0052020358	3
11	301	0.0054200358	1
11	313	0.0055300358	0
11	321	0.0060760358	1
11	342	0.006086042472	3
11	349	0.006304042472	1
11	366	0.006494048249	3
11	379	0.007040048249	1
11	389	0.007050049144	3
11	396	0.007268049144	1
11	409	0.00781805248	3
11	416	0.00836405248	1
11	435	0.008374055816	3
11	442	0.008592055816	1
12	0	0	1
12	28	0.000170003336	3
12	35	0.000716003336	1
12	94	0.000886006672	3
12	108	0.001432006672	2
12	118	0.001432010007	1
12	130	0.001542015784	3
12	145	0.002088015784	1
12	156	0.002098016679	3
12	163	0.002316016679	1
12	185	0.002606020015	3
12	199	0.003152020015	2
12	206	0.003152022456	1
12	214	0.003362022456	0
12	224	0.003908022456	1
12	246	0.003918029128	3
12	253	0.004136029128	1
12	269	0.004646032464	3
12	276	0.005192032464	1
12	295	0.0052020358	3
12	302	0.0054200358	1
12	320	0.005530042471	3
12	335	0.006076042471	1
12	343	0.006086042472	3
12	350	0.006304042472	1
12	364	0.006494045808	3
12	371	0.007040045808	1
12	390	0.007050049144	3
12	397	0.007268049144	1
12	412	0.007818054921	3
12	425	0.008364054921	1
12	436	0.008374055816	3
12	443	0.008592055816	1
13	0	0	1
13	29	0.000170003336	3
13	36	0.000716003336	1
13	86	0.000886003336	0
13	102	0.001432003336	2
13	114	0.001432009113	1
13	131	0.001542016678	3
13	148	0.002088016678	1
13	157	0.002098016679	3
13	164	0.002316016679	1
13	182	0.002606020015	3
13	196	0.003152020015	2
13	208	0.003152022456	1
13	218	0.003362025792	3
13	227	0.003908025792	1
13	247	0.003918029128	3
13	254	0.004136029128	1
13	271	0.004646034905	3
13	284	0.005192034905	1
13	296	0.0052020358	3
13	303	0.0054200358	1
13	319	0.005530041577	3
13	332	0.006076041577	1
13	344	0.006086042472	3
13	351	0.006304042472	1
13	360	0.006494042472	0
13	368	0.007040042472	1
13	391	0.007050049144	3
13	398	0.007268049144	1
13	410	0.00781805248	3
13	417	0.00836405248	1
13	437	0.008374055816	3
13	444	0.008592055816	1
14	3	0	12
15	17	0	32
16	17	0	32
17	18	0	59
18	18	0	1
18	18	0	0
19	18	0	59
20	18	0	0
21	20	0	12
21	142	0.002088013343	12
21	232	0.003908025792	12
21	281	0.005192032464	12
21	329	0.006076039136	12
21	376	0.007040045808	12
21	422	0.00836405248	12
22	20	0	1
23	22	0.00017	1
23	23	0.00017	2
23	30	0.000716	1
23	30	0.000716	0
23	150	0.002098013343	1
23	151	0.002098013343	2
23	158	0.002316013343	1
23	158	0.002316013343	0
23	240	0.003918025792	1
23	241	0.003918025792	2
23	248	0.004136025792	1
23	248	0.004136025792	0
23	289	0.005202032464	1
23	290	0.005202032464	2
23	297	0.005420032464	1
23	297	0.005420032464	0
23	337	0.006086039136	1
23	338	0.006086039136	2
23	345	0.006304039136	1
23	345	0.006304039136	0
23	384	0.007050045808	1
23	385	0.007050045808	2
23	392	0.007268045808	1
23	392	0.007268045808	0
23	430	0.00837405248	1
23	431	0.00837405248	2
23	438	0.00859205248	1
23	438	0.00859205248	0
24	49	0.000716003336	12
25	49	0.000716003336	1
26	50	0.000716003336	12
27	50	0.000716003336	1
28	51	0.000716003336	12
29	51	0.000716003336	1
30	52	0.000716003336	12
31	52	0.000716003336	1
32	53	0.000716003336	12
33	53	0.000716003336	1
34	54	0.000716003336	12
35	54	0.000716003336	1
36	61	0.000716003336	12
37	62	0.000716003336	12
38	63	0.000716003336	12
39	64	0.000716003336	12
40	65	0.000716003336	12
41	66	0.000716003336	12
42	73	0.000716003336	59
43	73	0.000716003336	1
43	73	0.000716003336	0
44	73	0.000716003336	59
45	73	0.000716003336	0
46	74	0.000716003336	59
47	74	0.000716003336	1
47	74	0.000716003336	0
48	74	0.000716003336	59
49	74	0.000716003336	0
50	75	0.000716003336	59
51	75	0.000716003336	1
51	75	0.000716003336	0
52	75	0.000716003336	59
53	75	0.000716003336	0
54	76	0.000716003336	59
55	76	0.000716003336	1
55	76	0.000716003336	0
56	76	0.000716003336	59
57	76	0.000716003336	0
58	77	0.000716003336	59
59	77	0.000716003336	1
59	77	0.000716003336	0
60	77	0.000716003336	59
61	77	0.000716003336	0
62	78	0.000716003336	59
63	78	0.000716003336	1
63	78	0.000716003336	0
64	78	0.000716003336	59
65	78	0.000716003336	0
66	85	0.000886003336	1
66	87	0.000886003336	2
66	101	0.001432003336	1
66	101	0.001432003336	0
66	313	0.0055300358	1
66	314	0.0055300358	2
66	321	0.0060760358	1
66	321	0.0060760358	0
67	86	0.000886003336	1
67	88	0.000886003336	2
67	102	0.001432003336	1
67	102	0.001432003336	0
67	360	0.006494042472	1
67	361	0.006494042472	2
67	368	0.007040042472	1
67	368	0.007040042472	0
68	109	0.001432006672	59
68	200	0.003152020015	59
69	110	0.001432006672	59
70	111	0.001432006672	59
70	237	0.003908028233	59
70	278	0.005192032464	59
70	327	0.006076039136	59
70	383	0.007040049143	59
70	426	0.008364054921	59
71	112	0.001432006672	59
71	147	0.002088015784	59
71	204	0.003152020015	59
71	279	0.005192032464	59
71	336	0.006076042471	59
71	374	0.007040045808	59
71	427	0.008364054921	59
72	117	0.001432009113	59
73	124	0.001542010007	1
73	125	0.001542010007	2
73	134	0.002088010007	1
73	134	0.002088010007	0
74	139	0.002088013343	59
74	229	0.003908025792	59
74	333	0.006076041577	59
74	380	0.007040048249	59
74	429	0.008364055815	59
75	140	0.002088013343	59
75	201	0.003152020015	59
75	239	0.003908029127	59
75	285	0.005192034905	59
75	381	0.007040048249	59
75	419	0.00836405248	59
76	142	0.002088013343	1
76	232	0.003908025792	2
76	281	0.005192032464	3
76	329	0.006076039136	4
76	376	0.007040045808	5
76	422	0.00836405248	6
77	146	0.002088015784	59
77	236	0.003908028233	59
77	288	0.005192035799	59
77	326	0.006076039136	59
77	373	0.007040045808	59
78	149	0.002088016678	59
78	202	0.003152020015	59
78	230	0.003908025792	59
78	286	0.005192034905	59
78	334	0.006076041577	59
78	420	0.00836405248	59
79	176	0.002606016679	1
79	178	0.002606016679	2
79	192	0.003152016679	1
79	192	0.003152016679	0
79	406	0.007818049144	1
79	407	0.007818049144	2
79	414	0.008364049144	1
79	414	0.008364049144	0
80	177	0.002606016679	1
80	179	0.002606016679	2
80	193	0.003152016679	1
80	193	0.003152016679	0
80	265	0.004646029128	1
80	266	0.004646029128	2
80	273	0.005192029128	1
80	273	0.005192029128	0
81	203	0.003152020015	59
82	214	0.003362022456	1
82	215	0.003362022456	2
82	224	0.003908022456	1
82	224	0.003908022456	0

