version 2
run Wireless01-3-20200701-21:13:05-15559
attr configname Wireless01
attr datetime 20200701-21:13:05
attr experiment Wireless01
attr inifile omnetpp.ini
attr iterationvars $name=Wireless_3_10
attr iterationvarsf name=Wireless#_3#_10-
attr measurement $name=Wireless_3_10
attr network "${name=WirelessA, Wireless_3_1, Wireless_3_5, Wireless_3_10}"
attr processid 15559
attr repetition 0
attr replication #0
attr resultdir results
attr runnumber 3
attr seedset 3
itervar name Wireless_3_10
param *.hostA.numApps 1
param *.hostA.app[0].typename "\"TDOAApp\""
param *.hostA.app[0].destAddresses "\"Broadcast\""
param *.hostA.app[0].destPort 5000
param *.hostA.app[0].localPort 6000
param *.hostA.app[0].isReceiver false
param *.hostA.app[0].Nome_arquivo "\"Wireless_3_10.csv\""
param *.host*.numApps 1
param *.host*.app[0].typename "\"TDOAApp\""
param *.host*.app[0].localPort 5000
param *.host*.app[0].destPort 6000
param *.host*.app[0].destAddresses "\"hostA\""
param *.host*.app[0].isReceiver true
param *.host*.wlan[0].typename "\"WirelessInterface\""
param *.radioMedium.typename "\"ApskScalarRadioMedium\""
param *.radioMedium.backgroundNoise.power -90dBm
param *.radioMedium.mediumLimitCache.centerFrequency 2GHz
param *.host*.wlan[0].radio.typename "\"ApskScalarRadio\""
param *.host*.wlan[0].radio.centerFrequency 2GHz
param *.host*.wlan[0].radio.bandwidth 2MHz
param *.host*.wlan[0].radio.transmitter.power 1.4mW
param *.host*.wlan[0].radio.transmitter.preambleDuration 10us
param *.host*.wlan[0].radio.transmitter.headerLength 8B
param *.host*.wlan[0].radio.receiver.sensitivity -85dBm
param *.host*.wlan[0].radio.receiver.energyDetection -85dBm
param *.host*.wlan[0].radio.receiver.snirThreshold 4dB
param *.host*.wlan[0].mac.typename "\"CsmaCaMac\""
param *.host*.wlan[0].mac.ackTimeout 300us
param *.host*.wlan[0].mac.useAck true
param *.host*.wlan[0].mac.fullDuplex false
param *.host*.wlan[0].radio.receiver.ignoreInterference true
param *.host*.wlan[0].mac.headerLength 23B
param *.host*.**.bitrate 1Mbps
param *.host*.ipv4.arp.typename "\"GlobalArp\""
param **.ip.limitedBroadcast true

vector 0 Wireless_3_10.hostA.wlan[0].radio radioMode:vector ETV
attr interpolationmode sample-hold
attr source radioModeChanged
attr title "Radio mode, vector"
vector 1 Wireless_3_10.hostB.wlan[0].radio radioMode:vector ETV
attr interpolationmode sample-hold
attr source radioModeChanged
attr title "Radio mode, vector"
vector 2 Wireless_3_10.hostC.wlan[0].radio radioMode:vector ETV
attr interpolationmode sample-hold
attr source radioModeChanged
attr title "Radio mode, vector"
vector 3 Wireless_3_10.hostD.wlan[0].radio radioMode:vector ETV
attr interpolationmode sample-hold
attr source radioModeChanged
attr title "Radio mode, vector"
vector 4 Wireless_3_10.hostA.wlan[0].radio receptionState:vector ETV
attr interpolationmode sample-hold
attr source receptionStateChanged
attr title "Radio reception state, vector"
vector 5 Wireless_3_10.hostB.wlan[0].radio receptionState:vector ETV
attr interpolationmode sample-hold
attr source receptionStateChanged
attr title "Radio reception state, vector"
vector 6 Wireless_3_10.hostC.wlan[0].radio receptionState:vector ETV
attr interpolationmode sample-hold
attr source receptionStateChanged
attr title "Radio reception state, vector"
vector 7 Wireless_3_10.hostD.wlan[0].radio receptionState:vector ETV
attr interpolationmode sample-hold
attr source receptionStateChanged
attr title "Radio reception state, vector"
0	0	0	0
0	0	0	0
0	0	0	2
1	0	0	0
1	0	0	0
1	0	0	2
2	0	0	0
2	0	0	0
2	0	0	2
3	0	0	0
3	0	0	0
3	0	0	2
4	0	0	1
5	0	0	1
6	0	0	1
7	0	0	1

