version 2
run Wireless01-70-20200717-17:32:33-11448
attr configname Wireless01
attr datetime 20200717-17:32:33
attr experiment Wireless01
attr inifile omnetpp.ini
attr iterationvars $name=Wireless_3_5
attr iterationvarsf name=Wireless#_3#_5-
attr measurement $name=Wireless_3_5
attr network "${name=WirelessA, Wireless_3_1, Wireless_3_5, Wireless_3_10, Wireless_6_1,Wireless_6_5,Wireless_6_10,Wireless_12_1,Wireless_12_5,Wireless_12_10}"
attr processid 11448
attr repetition 10
attr replication #10
attr resultdir results
attr runnumber 70
attr seedset 70
itervar name Wireless_3_5
param *.hostA.numApps 1
param *.hostA.app[0].typename "\"TDOAApp\""
param *.hostA.app[0].destAddresses "\"Broadcast\""
param *.hostA.app[0].destPort 5000
param *.hostA.app[0].localPort 6000
param *.hostA.app[0].isReceiver false
param *.hostA.app[0].Nome_arquivo "\"Wireless_3_5.csv\""
param *.host*.numApps 1
param *.host*.app[0].typename "\"TDOAApp\""
param *.host*.app[0].localPort 5000
param *.host*.app[0].destPort 6000
param *.host*.app[0].destAddresses "\"hostA\""
param *.host*.app[0].isReceiver true
param *.host*.wlan[0].typename "\"WirelessInterface\""
param *.radioMedium.typename "\"ApskScalarRadioMedium\""
param *.radioMedium.backgroundNoise.power -90dBm
param *.radioMedium.mediumLimitCache.centerFrequency 2GHz
param *.host*.wlan[0].radio.typename "\"ApskScalarRadio\""
param *.host*.wlan[0].radio.centerFrequency 2GHz
param *.host*.wlan[0].radio.bandwidth 2MHz
param *.host*.wlan[0].radio.transmitter.power 1.4mW
param *.host*.wlan[0].radio.transmitter.preambleDuration 10us
param *.host*.wlan[0].radio.transmitter.headerLength 8B
param *.host*.wlan[0].radio.receiver.sensitivity -85dBm
param *.host*.wlan[0].radio.receiver.energyDetection -85dBm
param *.host*.wlan[0].radio.receiver.snirThreshold 4dB
param *.host*.wlan[0].mac.typename "\"CsmaCaMac\""
param *.host*.wlan[0].mac.ackTimeout 300us
param *.host*.wlan[0].mac.useAck true
param *.host*.wlan[0].mac.fullDuplex false
param *.host*.wlan[0].radio.receiver.ignoreInterference true
param *.host*.wlan[0].mac.headerLength 23B
param *.host*.**.bitrate 1Mbps
param *.host*.ipv4.arp.typename "\"GlobalArp\""
param **.ip.limitedBroadcast true

vector 0 Wireless_3_5.hostA.wlan[0].radio radioMode:vector ETV
attr interpolationmode sample-hold
attr source radioModeChanged
attr title "Radio mode, vector"
vector 1 Wireless_3_5.hostB.wlan[0].radio radioMode:vector ETV
attr interpolationmode sample-hold
attr source radioModeChanged
attr title "Radio mode, vector"
vector 2 Wireless_3_5.hostC.wlan[0].radio radioMode:vector ETV
attr interpolationmode sample-hold
attr source radioModeChanged
attr title "Radio mode, vector"
vector 3 Wireless_3_5.hostD.wlan[0].radio radioMode:vector ETV
attr interpolationmode sample-hold
attr source radioModeChanged
attr title "Radio mode, vector"
vector 4 Wireless_3_5.hostA.wlan[0].radio receptionState:vector ETV
attr interpolationmode sample-hold
attr source receptionStateChanged
attr title "Radio reception state, vector"
vector 5 Wireless_3_5.hostB.wlan[0].radio receptionState:vector ETV
attr interpolationmode sample-hold
attr source receptionStateChanged
attr title "Radio reception state, vector"
vector 6 Wireless_3_5.hostC.wlan[0].radio receptionState:vector ETV
attr interpolationmode sample-hold
attr source receptionStateChanged
attr title "Radio reception state, vector"
vector 7 Wireless_3_5.hostD.wlan[0].radio receptionState:vector ETV
attr interpolationmode sample-hold
attr source receptionStateChanged
attr title "Radio reception state, vector"
vector 8 Wireless_3_5.hostA.udp packetSent:vector(packetBytes) ETV
attr interpolationmode none
attr source packetSent
attr title "packets sent, vector(packetBytes)"
vector 9 Wireless_3_5.hostA.lo[0].lo rcvdPkFromHl:vector(packetBytes) ETV
attr interpolationmode none
attr source packetReceivedFromUpper
attr title "packets received from higher layer, vector(packetBytes)"
vector 10 Wireless_3_5.hostA.lo[0].lo passedUpPk:vector(packetBytes) ETV
attr interpolationmode none
attr source packetSentToUpper
attr title "packets passed to higher layer, vector(packetBytes)"
vector 11 Wireless_3_5.hostA.wlan[0].mac.queue packetPushed:vector(packetBytes) ETV
attr interpolationmode none
attr title "packet pushed, vector(packetBytes)"
vector 12 Wireless_3_5.hostA.wlan[0].mac.queue queueLength:vector ETV
attr interpolationmode sample-hold
attr source "count(packetPushed) - count(packetPopped) - count(packetRemoved) - count(packetDropped)"
attr title "queue length, vector"
vector 13 Wireless_3_5.hostA.wlan[0].mac.queue packetPopped:vector(packetBytes) ETV
attr interpolationmode none
attr title "packet popped, vector(packetBytes)"
vector 14 Wireless_3_5.hostA.wlan[0].mac.queue queueingTime:vector ETV
attr interpolationmode none
attr source queueingTime(packetPopped)
attr title "queueing times, vector"
attr unit s
vector 15 Wireless_3_5.hostA.udp packetReceived:vector(packetBytes) ETV
attr interpolationmode none
attr source packetReceived
attr title "packets received, vector(packetBytes)"
vector 16 Wireless_3_5.hostA.udp droppedPkWrongPort:vector(count) ETV
attr interpolationmode none
attr source packetDropReasonIsNoPortFound(packetDropped)
attr title "packets dropped (wrong port), vector(count)"
vector 17 Wireless_3_5.hostA.wlan[0].radio transmissionState:vector ETV
attr interpolationmode sample-hold
attr source transmissionStateChanged
attr title "Radio transmission state, vector"
vector 18 Wireless_3_5.hostB.udp packetReceived:vector(packetBytes) ETV
attr interpolationmode none
attr source packetReceived
attr title "packets received, vector(packetBytes)"
vector 19 Wireless_3_5.hostB.udp passedUpPk:vector(count) ETV
attr interpolationmode none
attr source packetSentToUpper
attr title "packets passed up, vector(count)"
vector 20 Wireless_3_5.hostC.udp packetReceived:vector(packetBytes) ETV
attr interpolationmode none
attr source packetReceived
attr title "packets received, vector(packetBytes)"
vector 21 Wireless_3_5.hostC.udp passedUpPk:vector(count) ETV
attr interpolationmode none
attr source packetSentToUpper
attr title "packets passed up, vector(count)"
vector 22 Wireless_3_5.hostD.udp packetReceived:vector(packetBytes) ETV
attr interpolationmode none
attr source packetReceived
attr title "packets received, vector(packetBytes)"
vector 23 Wireless_3_5.hostD.udp passedUpPk:vector(count) ETV
attr interpolationmode none
attr source packetSentToUpper
attr title "packets passed up, vector(count)"
vector 24 Wireless_3_5.hostB.udp packetSent:vector(packetBytes) ETV
attr interpolationmode none
attr source packetSent
attr title "packets sent, vector(packetBytes)"
vector 25 Wireless_3_5.hostC.udp packetSent:vector(packetBytes) ETV
attr interpolationmode none
attr source packetSent
attr title "packets sent, vector(packetBytes)"
vector 26 Wireless_3_5.hostD.udp packetSent:vector(packetBytes) ETV
attr interpolationmode none
attr source packetSent
attr title "packets sent, vector(packetBytes)"
vector 27 Wireless_3_5.hostB.wlan[0].mac.queue packetPushed:vector(packetBytes) ETV
attr interpolationmode none
attr title "packet pushed, vector(packetBytes)"
vector 28 Wireless_3_5.hostB.wlan[0].mac.queue queueLength:vector ETV
attr interpolationmode sample-hold
attr source "count(packetPushed) - count(packetPopped) - count(packetRemoved) - count(packetDropped)"
attr title "queue length, vector"
vector 29 Wireless_3_5.hostB.wlan[0].mac.queue packetPopped:vector(packetBytes) ETV
attr interpolationmode none
attr title "packet popped, vector(packetBytes)"
vector 30 Wireless_3_5.hostB.wlan[0].mac.queue queueingTime:vector ETV
attr interpolationmode none
attr source queueingTime(packetPopped)
attr title "queueing times, vector"
attr unit s
vector 31 Wireless_3_5.hostC.wlan[0].mac.queue packetPushed:vector(packetBytes) ETV
attr interpolationmode none
attr title "packet pushed, vector(packetBytes)"
vector 32 Wireless_3_5.hostC.wlan[0].mac.queue queueLength:vector ETV
attr interpolationmode sample-hold
attr source "count(packetPushed) - count(packetPopped) - count(packetRemoved) - count(packetDropped)"
attr title "queue length, vector"
vector 33 Wireless_3_5.hostC.wlan[0].mac.queue packetPopped:vector(packetBytes) ETV
attr interpolationmode none
attr title "packet popped, vector(packetBytes)"
vector 34 Wireless_3_5.hostC.wlan[0].mac.queue queueingTime:vector ETV
attr interpolationmode none
attr source queueingTime(packetPopped)
attr title "queueing times, vector"
attr unit s
vector 35 Wireless_3_5.hostD.wlan[0].mac.queue packetPushed:vector(packetBytes) ETV
attr interpolationmode none
attr title "packet pushed, vector(packetBytes)"
vector 36 Wireless_3_5.hostD.wlan[0].mac.queue queueLength:vector ETV
attr interpolationmode sample-hold
attr source "count(packetPushed) - count(packetPopped) - count(packetRemoved) - count(packetDropped)"
attr title "queue length, vector"
vector 37 Wireless_3_5.hostD.wlan[0].mac.queue packetPopped:vector(packetBytes) ETV
attr interpolationmode none
attr title "packet popped, vector(packetBytes)"
vector 38 Wireless_3_5.hostD.wlan[0].mac.queue queueingTime:vector ETV
attr interpolationmode none
attr source queueingTime(packetPopped)
attr title "queueing times, vector"
attr unit s
vector 39 Wireless_3_5.hostC.wlan[0].radio transmissionState:vector ETV
attr interpolationmode sample-hold
attr source transmissionStateChanged
attr title "Radio transmission state, vector"
vector 40 Wireless_3_5.hostA.udp passedUpPk:vector(count) ETV
attr interpolationmode none
attr source packetSentToUpper
attr title "packets passed up, vector(count)"
vector 41 Wireless_3_5.hostD.wlan[0].mac packetDropNotAddressedToUs:vector(packetBytes) ETV
attr interpolationmode none
attr source packetDropReasonIsNotAddressedToUs(packetDropped)
attr title "packet drop: not addressed to us, vector(packetBytes)"
vector 42 Wireless_3_5.hostB.wlan[0].mac packetDropNotAddressedToUs:vector(packetBytes) ETV
attr interpolationmode none
attr source packetDropReasonIsNotAddressedToUs(packetDropped)
attr title "packet drop: not addressed to us, vector(packetBytes)"
vector 43 Wireless_3_5.hostB.wlan[0].radio transmissionState:vector ETV
attr interpolationmode sample-hold
attr source transmissionStateChanged
attr title "Radio transmission state, vector"
vector 44 Wireless_3_5.hostD.wlan[0].radio transmissionState:vector ETV
attr interpolationmode sample-hold
attr source transmissionStateChanged
attr title "Radio transmission state, vector"
vector 45 Wireless_3_5.hostA.wlan[0].mac packetDropIncorrectlyReceived:vector(packetBytes) ETV
attr interpolationmode none
attr source packetDropReasonIsIncorrectlyReceived(packetDropped)
attr title "packet drop: incorrectly received, vector(packetBytes)"
vector 46 Wireless_3_5.hostC.wlan[0].mac packetDropIncorrectlyReceived:vector(packetBytes) ETV
attr interpolationmode none
attr source packetDropReasonIsIncorrectlyReceived(packetDropped)
attr title "packet drop: incorrectly received, vector(packetBytes)"
vector 47 Wireless_3_5.hostC.wlan[0].mac packetDropNotAddressedToUs:vector(packetBytes) ETV
attr interpolationmode none
attr source packetDropReasonIsNotAddressedToUs(packetDropped)
attr title "packet drop: not addressed to us, vector(packetBytes)"
0	0	0	0
0	0	0	0
0	0	0	2
0	16	0.00019	3
0	21	0.000736	2
0	64	0.001362033356	3
0	69	0.001580033356	2
0	117	0.003482066712	3
0	122	0.003700066712	2
0	145	0.005366100068	3
0	150	0.005584100068	2
1	0	0	0
1	0	0	0
1	0	0	2
1	78	0.002010050034	3
1	88	0.002556050034	2
1	130	0.00481008339	3
1	135	0.00535608339	2
2	0	0	0
2	0	0	0
2	0	0	2
2	49	0.000806016678	3
2	54	0.001352016678	2
3	0	0	0
3	0	0	0
3	0	0	2
3	79	0.002010050034	3
3	89	0.002556050034	2
3	102	0.002926050034	3
3	107	0.003472050034	2
4	0	0	1
4	16	0.00019	0
4	21	0.000736	1
4	51	0.000806033356	3
4	55	0.001352033356	1
4	64	0.001362033356	0
4	69	0.001580033356	1
4	82	0.002010066712	3
4	90	0.002556066712	1
4	104	0.002926066712	3
4	108	0.003472066712	1
4	117	0.003482066712	0
4	122	0.003700066712	1
4	132	0.004810100068	3
4	136	0.005356100068	1
4	145	0.005366100068	0
4	150	0.005584100068	1
5	0	0	1
5	18	0.000190016678	3
5	22	0.000736016678	1
5	53	0.000806050034	3
5	62	0.001352050034	1
5	66	0.001362050034	3
5	70	0.001580050034	1
5	78	0.002010050034	0
5	88	0.002556050034	2
5	94	0.002556073621	1
5	105	0.002926073621	3
5	113	0.003472073621	1
5	119	0.00348208339	3
5	123	0.00370008339	1
5	130	0.00481008339	0
5	135	0.00535608339	1
5	147	0.005366116746	3
5	151	0.005584116746	1
6	0	0	1
6	19	0.000190016678	3
6	23	0.000736016678	1
6	49	0.000806016678	0
6	54	0.001352016678	1
6	67	0.001362050034	3
6	71	0.001580050034	1
6	86	0.002010073621	3
6	95	0.002556073621	2
6	97	0.00255608339	1
6	106	0.002926073621	3
6	114	0.003472073621	1
6	120	0.00348208339	3
6	124	0.00370008339	1
6	134	0.004810116746	3
6	143	0.005356116746	1
6	148	0.005366116746	3
6	152	0.005584116746	1
7	0	0	1
7	20	0.000190016678	3
7	24	0.000736016678	1
7	52	0.000806040265	3
7	60	0.001352040265	1
7	68	0.001362050034	3
7	72	0.001580050034	1
7	79	0.002010050034	0
7	89	0.002556050034	2
7	93	0.002556073621	1
7	102	0.002926050034	0
7	107	0.003472050034	1
7	121	0.00348208339	3
7	125	0.00370008339	1
7	133	0.004810106977	3
7	141	0.005356106977	1
7	149	0.005366116746	3
7	153	0.005584116746	1
8	3	0	12
9	11	0	32
10	11	0	32
11	12	0	59
12	12	0	1
12	12	0	0
13	12	0	59
14	12	0	0
15	14	0	12
15	58	0.001352033356	12
15	111	0.003472066712	12
15	139	0.005356100068	12
16	14	0	1
17	16	0.00019	1
17	17	0.00019	2
17	21	0.000736	1
17	21	0.000736	0
17	64	0.001362033356	1
17	65	0.001362033356	2
17	69	0.001580033356	1
17	69	0.001580033356	0
17	117	0.003482066712	1
17	118	0.003482066712	2
17	122	0.003700066712	1
17	122	0.003700066712	0
17	145	0.005366100068	1
17	146	0.005366100068	2
17	150	0.005584100068	1
17	150	0.005584100068	0
18	31	0.000736016678	12
19	31	0.000736016678	1
20	32	0.000736016678	12
21	32	0.000736016678	1
22	33	0.000736016678	12
23	33	0.000736016678	1
24	37	0.000736016678	12
25	38	0.000736016678	12
26	39	0.000736016678	12
27	43	0.000736016678	59
28	43	0.000736016678	1
28	43	0.000736016678	0
29	43	0.000736016678	59
30	43	0.000736016678	0
31	44	0.000736016678	59
32	44	0.000736016678	1
32	44	0.000736016678	0
33	44	0.000736016678	59
34	44	0.000736016678	0
35	45	0.000736016678	59
36	45	0.000736016678	1
36	45	0.000736016678	0
37	45	0.000736016678	59
38	45	0.000736016678	0
39	49	0.000806016678	1
39	50	0.000806016678	2
39	54	0.001352016678	1
39	54	0.001352016678	0
40	58	0.001352033356	1
40	111	0.003472066712	2
40	139	0.005356100068	3
41	61	0.001352040265	59
41	142	0.005356106977	59
42	63	0.001352050034	59
42	115	0.003472073621	59
43	78	0.002010050034	1
43	80	0.002010050034	2
43	88	0.002556050034	1
43	88	0.002556050034	0
43	130	0.00481008339	1
43	131	0.00481008339	2
43	135	0.00535608339	1
43	135	0.00535608339	0
44	79	0.002010050034	1
44	81	0.002010050034	2
44	89	0.002556050034	1
44	89	0.002556050034	0
44	102	0.002926050034	1
44	103	0.002926050034	2
44	107	0.003472050034	1
44	107	0.003472050034	0
45	92	0.002556066712	59
46	96	0.002556073621	59
47	116	0.003472073621	59
47	144	0.005356116746	59

