version 2
run Wireless01-87-20200717-17:32:40-11536
attr configname Wireless01
attr datetime 20200717-17:32:40
attr experiment Wireless01
attr inifile omnetpp.ini
attr iterationvars $name=Wireless_3_5
attr iterationvarsf name=Wireless#_3#_5-
attr measurement $name=Wireless_3_5
attr network "${name=WirelessA, Wireless_3_1, Wireless_3_5, Wireless_3_10, Wireless_6_1,Wireless_6_5,Wireless_6_10,Wireless_12_1,Wireless_12_5,Wireless_12_10}"
attr processid 11536
attr repetition 27
attr replication #27
attr resultdir results
attr runnumber 87
attr seedset 87
itervar name Wireless_3_5
param *.hostA.numApps 1
param *.hostA.app[0].typename "\"TDOAApp\""
param *.hostA.app[0].destAddresses "\"Broadcast\""
param *.hostA.app[0].destPort 5000
param *.hostA.app[0].localPort 6000
param *.hostA.app[0].isReceiver false
param *.hostA.app[0].Nome_arquivo "\"Wireless_3_5.csv\""
param *.host*.numApps 1
param *.host*.app[0].typename "\"TDOAApp\""
param *.host*.app[0].localPort 5000
param *.host*.app[0].destPort 6000
param *.host*.app[0].destAddresses "\"hostA\""
param *.host*.app[0].isReceiver true
param *.host*.wlan[0].typename "\"WirelessInterface\""
param *.radioMedium.typename "\"ApskScalarRadioMedium\""
param *.radioMedium.backgroundNoise.power -90dBm
param *.radioMedium.mediumLimitCache.centerFrequency 2GHz
param *.host*.wlan[0].radio.typename "\"ApskScalarRadio\""
param *.host*.wlan[0].radio.centerFrequency 2GHz
param *.host*.wlan[0].radio.bandwidth 2MHz
param *.host*.wlan[0].radio.transmitter.power 1.4mW
param *.host*.wlan[0].radio.transmitter.preambleDuration 10us
param *.host*.wlan[0].radio.transmitter.headerLength 8B
param *.host*.wlan[0].radio.receiver.sensitivity -85dBm
param *.host*.wlan[0].radio.receiver.energyDetection -85dBm
param *.host*.wlan[0].radio.receiver.snirThreshold 4dB
param *.host*.wlan[0].mac.typename "\"CsmaCaMac\""
param *.host*.wlan[0].mac.ackTimeout 300us
param *.host*.wlan[0].mac.useAck true
param *.host*.wlan[0].mac.fullDuplex false
param *.host*.wlan[0].radio.receiver.ignoreInterference true
param *.host*.wlan[0].mac.headerLength 23B
param *.host*.**.bitrate 1Mbps
param *.host*.ipv4.arp.typename "\"GlobalArp\""
param **.ip.limitedBroadcast true

vector 0 Wireless_3_5.hostA.wlan[0].radio radioMode:vector ETV
attr interpolationmode sample-hold
attr source radioModeChanged
attr title "Radio mode, vector"
vector 1 Wireless_3_5.hostB.wlan[0].radio radioMode:vector ETV
attr interpolationmode sample-hold
attr source radioModeChanged
attr title "Radio mode, vector"
vector 2 Wireless_3_5.hostC.wlan[0].radio radioMode:vector ETV
attr interpolationmode sample-hold
attr source radioModeChanged
attr title "Radio mode, vector"
vector 3 Wireless_3_5.hostD.wlan[0].radio radioMode:vector ETV
attr interpolationmode sample-hold
attr source radioModeChanged
attr title "Radio mode, vector"
vector 4 Wireless_3_5.hostA.wlan[0].radio receptionState:vector ETV
attr interpolationmode sample-hold
attr source receptionStateChanged
attr title "Radio reception state, vector"
vector 5 Wireless_3_5.hostB.wlan[0].radio receptionState:vector ETV
attr interpolationmode sample-hold
attr source receptionStateChanged
attr title "Radio reception state, vector"
vector 6 Wireless_3_5.hostC.wlan[0].radio receptionState:vector ETV
attr interpolationmode sample-hold
attr source receptionStateChanged
attr title "Radio reception state, vector"
vector 7 Wireless_3_5.hostD.wlan[0].radio receptionState:vector ETV
attr interpolationmode sample-hold
attr source receptionStateChanged
attr title "Radio reception state, vector"
vector 8 Wireless_3_5.hostA.udp packetSent:vector(packetBytes) ETV
attr interpolationmode none
attr source packetSent
attr title "packets sent, vector(packetBytes)"
vector 9 Wireless_3_5.hostA.lo[0].lo rcvdPkFromHl:vector(packetBytes) ETV
attr interpolationmode none
attr source packetReceivedFromUpper
attr title "packets received from higher layer, vector(packetBytes)"
vector 10 Wireless_3_5.hostA.lo[0].lo passedUpPk:vector(packetBytes) ETV
attr interpolationmode none
attr source packetSentToUpper
attr title "packets passed to higher layer, vector(packetBytes)"
vector 11 Wireless_3_5.hostA.wlan[0].mac.queue packetPushed:vector(packetBytes) ETV
attr interpolationmode none
attr title "packet pushed, vector(packetBytes)"
vector 12 Wireless_3_5.hostA.wlan[0].mac.queue queueLength:vector ETV
attr interpolationmode sample-hold
attr source "count(packetPushed) - count(packetPopped) - count(packetRemoved) - count(packetDropped)"
attr title "queue length, vector"
vector 13 Wireless_3_5.hostA.wlan[0].mac.queue packetPopped:vector(packetBytes) ETV
attr interpolationmode none
attr title "packet popped, vector(packetBytes)"
vector 14 Wireless_3_5.hostA.wlan[0].mac.queue queueingTime:vector ETV
attr interpolationmode none
attr source queueingTime(packetPopped)
attr title "queueing times, vector"
attr unit s
vector 15 Wireless_3_5.hostA.udp packetReceived:vector(packetBytes) ETV
attr interpolationmode none
attr source packetReceived
attr title "packets received, vector(packetBytes)"
vector 16 Wireless_3_5.hostA.udp droppedPkWrongPort:vector(count) ETV
attr interpolationmode none
attr source packetDropReasonIsNoPortFound(packetDropped)
attr title "packets dropped (wrong port), vector(count)"
vector 17 Wireless_3_5.hostA.wlan[0].radio transmissionState:vector ETV
attr interpolationmode sample-hold
attr source transmissionStateChanged
attr title "Radio transmission state, vector"
vector 18 Wireless_3_5.hostB.udp packetReceived:vector(packetBytes) ETV
attr interpolationmode none
attr source packetReceived
attr title "packets received, vector(packetBytes)"
vector 19 Wireless_3_5.hostB.udp passedUpPk:vector(count) ETV
attr interpolationmode none
attr source packetSentToUpper
attr title "packets passed up, vector(count)"
vector 20 Wireless_3_5.hostC.udp packetReceived:vector(packetBytes) ETV
attr interpolationmode none
attr source packetReceived
attr title "packets received, vector(packetBytes)"
vector 21 Wireless_3_5.hostC.udp passedUpPk:vector(count) ETV
attr interpolationmode none
attr source packetSentToUpper
attr title "packets passed up, vector(count)"
vector 22 Wireless_3_5.hostD.udp packetReceived:vector(packetBytes) ETV
attr interpolationmode none
attr source packetReceived
attr title "packets received, vector(packetBytes)"
vector 23 Wireless_3_5.hostD.udp passedUpPk:vector(count) ETV
attr interpolationmode none
attr source packetSentToUpper
attr title "packets passed up, vector(count)"
vector 24 Wireless_3_5.hostB.udp packetSent:vector(packetBytes) ETV
attr interpolationmode none
attr source packetSent
attr title "packets sent, vector(packetBytes)"
vector 25 Wireless_3_5.hostC.udp packetSent:vector(packetBytes) ETV
attr interpolationmode none
attr source packetSent
attr title "packets sent, vector(packetBytes)"
vector 26 Wireless_3_5.hostD.udp packetSent:vector(packetBytes) ETV
attr interpolationmode none
attr source packetSent
attr title "packets sent, vector(packetBytes)"
vector 27 Wireless_3_5.hostB.wlan[0].mac.queue packetPushed:vector(packetBytes) ETV
attr interpolationmode none
attr title "packet pushed, vector(packetBytes)"
vector 28 Wireless_3_5.hostB.wlan[0].mac.queue queueLength:vector ETV
attr interpolationmode sample-hold
attr source "count(packetPushed) - count(packetPopped) - count(packetRemoved) - count(packetDropped)"
attr title "queue length, vector"
vector 29 Wireless_3_5.hostB.wlan[0].mac.queue packetPopped:vector(packetBytes) ETV
attr interpolationmode none
attr title "packet popped, vector(packetBytes)"
vector 30 Wireless_3_5.hostB.wlan[0].mac.queue queueingTime:vector ETV
attr interpolationmode none
attr source queueingTime(packetPopped)
attr title "queueing times, vector"
attr unit s
vector 31 Wireless_3_5.hostC.wlan[0].mac.queue packetPushed:vector(packetBytes) ETV
attr interpolationmode none
attr title "packet pushed, vector(packetBytes)"
vector 32 Wireless_3_5.hostC.wlan[0].mac.queue queueLength:vector ETV
attr interpolationmode sample-hold
attr source "count(packetPushed) - count(packetPopped) - count(packetRemoved) - count(packetDropped)"
attr title "queue length, vector"
vector 33 Wireless_3_5.hostC.wlan[0].mac.queue packetPopped:vector(packetBytes) ETV
attr interpolationmode none
attr title "packet popped, vector(packetBytes)"
vector 34 Wireless_3_5.hostC.wlan[0].mac.queue queueingTime:vector ETV
attr interpolationmode none
attr source queueingTime(packetPopped)
attr title "queueing times, vector"
attr unit s
vector 35 Wireless_3_5.hostD.wlan[0].mac.queue packetPushed:vector(packetBytes) ETV
attr interpolationmode none
attr title "packet pushed, vector(packetBytes)"
vector 36 Wireless_3_5.hostD.wlan[0].mac.queue queueLength:vector ETV
attr interpolationmode sample-hold
attr source "count(packetPushed) - count(packetPopped) - count(packetRemoved) - count(packetDropped)"
attr title "queue length, vector"
vector 37 Wireless_3_5.hostD.wlan[0].mac.queue packetPopped:vector(packetBytes) ETV
attr interpolationmode none
attr title "packet popped, vector(packetBytes)"
vector 38 Wireless_3_5.hostD.wlan[0].mac.queue queueingTime:vector ETV
attr interpolationmode none
attr source queueingTime(packetPopped)
attr title "queueing times, vector"
attr unit s
vector 39 Wireless_3_5.hostB.wlan[0].radio transmissionState:vector ETV
attr interpolationmode sample-hold
attr source transmissionStateChanged
attr title "Radio transmission state, vector"
vector 40 Wireless_3_5.hostD.wlan[0].radio transmissionState:vector ETV
attr interpolationmode sample-hold
attr source transmissionStateChanged
attr title "Radio transmission state, vector"
vector 41 Wireless_3_5.hostA.wlan[0].mac packetDropIncorrectlyReceived:vector(packetBytes) ETV
attr interpolationmode none
attr source packetDropReasonIsIncorrectlyReceived(packetDropped)
attr title "packet drop: incorrectly received, vector(packetBytes)"
vector 42 Wireless_3_5.hostC.wlan[0].mac packetDropIncorrectlyReceived:vector(packetBytes) ETV
attr interpolationmode none
attr source packetDropReasonIsIncorrectlyReceived(packetDropped)
attr title "packet drop: incorrectly received, vector(packetBytes)"
vector 43 Wireless_3_5.hostC.wlan[0].radio transmissionState:vector ETV
attr interpolationmode sample-hold
attr source transmissionStateChanged
attr title "Radio transmission state, vector"
vector 44 Wireless_3_5.hostA.udp passedUpPk:vector(count) ETV
attr interpolationmode none
attr source packetSentToUpper
attr title "packets passed up, vector(count)"
vector 45 Wireless_3_5.hostD.wlan[0].mac packetDropNotAddressedToUs:vector(packetBytes) ETV
attr interpolationmode none
attr source packetDropReasonIsNotAddressedToUs(packetDropped)
attr title "packet drop: not addressed to us, vector(packetBytes)"
vector 46 Wireless_3_5.hostB.wlan[0].mac packetDropNotAddressedToUs:vector(packetBytes) ETV
attr interpolationmode none
attr source packetDropReasonIsNotAddressedToUs(packetDropped)
attr title "packet drop: not addressed to us, vector(packetBytes)"
vector 47 Wireless_3_5.hostC.wlan[0].mac packetDropNotAddressedToUs:vector(packetBytes) ETV
attr interpolationmode none
attr source packetDropReasonIsNotAddressedToUs(packetDropped)
attr title "packet drop: not addressed to us, vector(packetBytes)"
0	0	0	0
0	0	0	0
0	0	0	2
0	16	0.00033	3
0	21	0.000876	2
0	87	0.002238066712	3
0	92	0.002456066712	2
0	116	0.003222100068	3
0	121	0.003440100068	2
0	144	0.004346133424	3
0	149	0.004564133424	2
1	0	0	0
1	0	0	0
1	0	0	2
1	49	0.000986016678	3
1	59	0.001532016678	2
1	101	0.00266608339	3
1	106	0.00321208339	2
2	0	0	0
2	0	0	0
2	0	0	2
2	70	0.001682050034	3
2	77	0.002228050034	2
3	0	0	0
3	0	0	0
3	0	0	2
3	50	0.000986016678	3
3	60	0.001532016678	2
3	129	0.003790116746	3
3	134	0.004336116746	2
4	0	0	1
4	16	0.00033	0
4	21	0.000876	1
4	53	0.000986033356	3
4	61	0.001532033356	1
4	72	0.001682066712	3
4	78	0.002228066712	1
4	87	0.002238066712	0
4	92	0.002456066712	1
4	103	0.002666100068	3
4	107	0.003212100068	1
4	116	0.003222100068	0
4	121	0.003440100068	1
4	131	0.003790133424	3
4	135	0.004336133424	1
4	144	0.004346133424	0
4	149	0.004564133424	1
5	0	0	1
5	18	0.000330016678	3
5	22	0.000876016678	1
5	49	0.000986016678	0
5	59	0.001532016678	2
5	65	0.001532040265	1
5	74	0.00168208339	3
5	85	0.00222808339	1
5	89	0.00223808339	3
5	93	0.00245608339	1
5	101	0.00266608339	0
5	106	0.00321208339	1
5	118	0.003222116746	3
5	122	0.003440116746	1
5	132	0.003790140333	3
5	140	0.004336140333	1
5	146	0.004346150102	3
5	150	0.004564150102	1
6	0	0	1
6	19	0.000330016678	3
6	23	0.000876016678	1
6	57	0.000986040265	3
6	66	0.001532040265	2
6	68	0.001532050034	1
6	70	0.001682050034	0
6	77	0.002228050034	1
6	90	0.00223808339	3
6	94	0.00245608339	1
6	105	0.002666116746	3
6	114	0.003212116746	1
6	119	0.003222116746	3
6	123	0.003440116746	1
6	133	0.003790140333	3
6	141	0.004336140333	1
6	147	0.004346150102	3
6	151	0.004564150102	1
7	0	0	1
7	20	0.000330016678	3
7	24	0.000876016678	1
7	50	0.000986016678	0
7	60	0.001532016678	2
7	64	0.001532040265	1
7	73	0.001682073621	3
7	83	0.002228073621	1
7	91	0.00223808339	3
7	95	0.00245608339	1
7	104	0.002666106977	3
7	112	0.003212106977	1
7	120	0.003222116746	3
7	124	0.003440116746	1
7	129	0.003790116746	0
7	134	0.004336116746	1
7	148	0.004346150102	3
7	152	0.004564150102	1
8	3	0	12
9	11	0	32
10	11	0	32
11	12	0	59
12	12	0	1
12	12	0	0
13	12	0	59
14	12	0	0
15	14	0	12
15	81	0.002228066712	12
15	110	0.003212100068	12
15	138	0.004336133424	12
16	14	0	1
17	16	0.00033	1
17	17	0.00033	2
17	21	0.000876	1
17	21	0.000876	0
17	87	0.002238066712	1
17	88	0.002238066712	2
17	92	0.002456066712	1
17	92	0.002456066712	0
17	116	0.003222100068	1
17	117	0.003222100068	2
17	121	0.003440100068	1
17	121	0.003440100068	0
17	144	0.004346133424	1
17	145	0.004346133424	2
17	149	0.004564133424	1
17	149	0.004564133424	0
18	31	0.000876016678	12
19	31	0.000876016678	1
20	32	0.000876016678	12
21	32	0.000876016678	1
22	33	0.000876016678	12
23	33	0.000876016678	1
24	37	0.000876016678	12
25	38	0.000876016678	12
26	39	0.000876016678	12
27	43	0.000876016678	59
28	43	0.000876016678	1
28	43	0.000876016678	0
29	43	0.000876016678	59
30	43	0.000876016678	0
31	44	0.000876016678	59
32	44	0.000876016678	1
32	44	0.000876016678	0
33	44	0.000876016678	59
34	44	0.000876016678	0
35	45	0.000876016678	59
36	45	0.000876016678	1
36	45	0.000876016678	0
37	45	0.000876016678	59
38	45	0.000876016678	0
39	49	0.000986016678	1
39	51	0.000986016678	2
39	59	0.001532016678	1
39	59	0.001532016678	0
39	101	0.00266608339	1
39	102	0.00266608339	2
39	106	0.00321208339	1
39	106	0.00321208339	0
40	50	0.000986016678	1
40	52	0.000986016678	2
40	60	0.001532016678	1
40	60	0.001532016678	0
40	129	0.003790116746	1
40	130	0.003790116746	2
40	134	0.004336116746	1
40	134	0.004336116746	0
41	63	0.001532033356	59
42	67	0.001532040265	59
43	70	0.001682050034	1
43	71	0.001682050034	2
43	77	0.002228050034	1
43	77	0.002228050034	0
44	81	0.002228066712	1
44	110	0.003212100068	2
44	138	0.004336133424	3
45	84	0.002228073621	59
45	113	0.003212106977	59
46	86	0.00222808339	59
46	142	0.004336140333	59
47	115	0.003212116746	59
47	143	0.004336140333	59

