file 15034 1595019243                                           
version 2
run Wireless01-37-20200717-17:54:03-13503
attr configname Wireless01
attr datetime 20200717-17:54:03
attr experiment Wireless01
attr inifile omnetpp.ini
attr iterationvars $name=Wireless_3_1
attr iterationvarsf name=Wireless#_3#_1-
attr measurement $name=Wireless_3_1
attr network "${name=WirelessA, Wireless_3_1, Wireless_3_5, Wireless_3_10, Wireless_6_1,Wireless_6_5,Wireless_6_10,Wireless_12_1,Wireless_12_5,Wireless_12_10}"
attr processid 13503
attr repetition 7
attr replication #7
attr resultdir results
attr runnumber 37
attr seedset 37
itervar name Wireless_3_1
param *.hostA.numApps 1
param *.hostA.app[0].typename "\"TDOAApp\""
param *.hostA.app[0].destAddresses "\"Broadcast\""
param *.hostA.app[0].destPort 5000
param *.hostA.app[0].localPort 6000
param *.hostA.app[0].isReceiver false
param *.hostA.app[0].Nome_arquivo "\"Wireless_3_1.csv\""
param *.host*.numApps 1
param *.host*.app[0].typename "\"TDOAApp\""
param *.host*.app[0].localPort 5000
param *.host*.app[0].destPort 6000
param *.host*.app[0].destAddresses "\"hostA\""
param *.host*.app[0].isReceiver true
param *.host*.wlan[0].typename "\"WirelessInterface\""
param *.radioMedium.typename "\"ApskScalarRadioMedium\""
param *.radioMedium.backgroundNoise.power -90dBm
param *.radioMedium.mediumLimitCache.centerFrequency 2GHz
param *.host*.wlan[0].radio.typename "\"ApskScalarRadio\""
param *.host*.wlan[0].radio.centerFrequency 2GHz
param *.host*.wlan[0].radio.bandwidth 2MHz
param *.host*.wlan[0].radio.transmitter.power 1.4mW
param *.host*.wlan[0].radio.transmitter.preambleDuration 10us
param *.host*.wlan[0].radio.transmitter.headerLength 8B
param *.host*.wlan[0].radio.receiver.sensitivity -85dBm
param *.host*.wlan[0].radio.receiver.energyDetection -85dBm
param *.host*.wlan[0].radio.receiver.snirThreshold 4dB
param *.host*.wlan[0].mac.typename "\"CsmaCaMac\""
param *.host*.wlan[0].mac.ackTimeout 300us
param *.host*.wlan[0].mac.useAck true
param *.host*.wlan[0].mac.fullDuplex false
param *.host*.wlan[0].radio.receiver.ignoreInterference true
param *.host*.wlan[0].mac.headerLength 23B
param *.host*.**.bitrate 1Mbps
param *.host*.ipv4.arp.typename "\"GlobalArp\""
param **.ip.limitedBroadcast true

vector 0 Wireless_3_1.hostA.wlan[0].radio radioMode:vector ETV
attr interpolationmode sample-hold
attr source radioModeChanged
attr title "Radio mode, vector"
vector 1 Wireless_3_1.hostB.wlan[0].radio radioMode:vector ETV
attr interpolationmode sample-hold
attr source radioModeChanged
attr title "Radio mode, vector"
vector 2 Wireless_3_1.hostC.wlan[0].radio radioMode:vector ETV
attr interpolationmode sample-hold
attr source radioModeChanged
attr title "Radio mode, vector"
vector 3 Wireless_3_1.hostD.wlan[0].radio radioMode:vector ETV
attr interpolationmode sample-hold
attr source radioModeChanged
attr title "Radio mode, vector"
vector 4 Wireless_3_1.hostA.wlan[0].radio receptionState:vector ETV
attr interpolationmode sample-hold
attr source receptionStateChanged
attr title "Radio reception state, vector"
vector 5 Wireless_3_1.hostB.wlan[0].radio receptionState:vector ETV
attr interpolationmode sample-hold
attr source receptionStateChanged
attr title "Radio reception state, vector"
vector 6 Wireless_3_1.hostC.wlan[0].radio receptionState:vector ETV
attr interpolationmode sample-hold
attr source receptionStateChanged
attr title "Radio reception state, vector"
vector 7 Wireless_3_1.hostD.wlan[0].radio receptionState:vector ETV
attr interpolationmode sample-hold
attr source receptionStateChanged
attr title "Radio reception state, vector"
vector 8 Wireless_3_1.hostA.udp packetSent:vector(packetBytes) ETV
attr interpolationmode none
attr source packetSent
attr title "packets sent, vector(packetBytes)"
vector 9 Wireless_3_1.hostA.lo[0].lo rcvdPkFromHl:vector(packetBytes) ETV
attr interpolationmode none
attr source packetReceivedFromUpper
attr title "packets received from higher layer, vector(packetBytes)"
vector 10 Wireless_3_1.hostA.lo[0].lo passedUpPk:vector(packetBytes) ETV
attr interpolationmode none
attr source packetSentToUpper
attr title "packets passed to higher layer, vector(packetBytes)"
vector 11 Wireless_3_1.hostA.wlan[0].mac.queue packetPushed:vector(packetBytes) ETV
attr interpolationmode none
attr title "packet pushed, vector(packetBytes)"
vector 12 Wireless_3_1.hostA.wlan[0].mac.queue queueLength:vector ETV
attr interpolationmode sample-hold
attr source "count(packetPushed) - count(packetPopped) - count(packetRemoved) - count(packetDropped)"
attr title "queue length, vector"
vector 13 Wireless_3_1.hostA.wlan[0].mac.queue packetPopped:vector(packetBytes) ETV
attr interpolationmode none
attr title "packet popped, vector(packetBytes)"
vector 14 Wireless_3_1.hostA.wlan[0].mac.queue queueingTime:vector ETV
attr interpolationmode none
attr source queueingTime(packetPopped)
attr title "queueing times, vector"
attr unit s
vector 15 Wireless_3_1.hostA.udp packetReceived:vector(packetBytes) ETV
attr interpolationmode none
attr source packetReceived
attr title "packets received, vector(packetBytes)"
vector 16 Wireless_3_1.hostA.udp droppedPkWrongPort:vector(count) ETV
attr interpolationmode none
attr source packetDropReasonIsNoPortFound(packetDropped)
attr title "packets dropped (wrong port), vector(count)"
vector 17 Wireless_3_1.hostA.wlan[0].radio transmissionState:vector ETV
attr interpolationmode sample-hold
attr source transmissionStateChanged
attr title "Radio transmission state, vector"
vector 18 Wireless_3_1.hostB.udp packetReceived:vector(packetBytes) ETV
attr interpolationmode none
attr source packetReceived
attr title "packets received, vector(packetBytes)"
vector 19 Wireless_3_1.hostB.udp passedUpPk:vector(count) ETV
attr interpolationmode none
attr source packetSentToUpper
attr title "packets passed up, vector(count)"
vector 20 Wireless_3_1.hostC.udp packetReceived:vector(packetBytes) ETV
attr interpolationmode none
attr source packetReceived
attr title "packets received, vector(packetBytes)"
vector 21 Wireless_3_1.hostC.udp passedUpPk:vector(count) ETV
attr interpolationmode none
attr source packetSentToUpper
attr title "packets passed up, vector(count)"
vector 22 Wireless_3_1.hostD.udp packetReceived:vector(packetBytes) ETV
attr interpolationmode none
attr source packetReceived
attr title "packets received, vector(packetBytes)"
vector 23 Wireless_3_1.hostD.udp passedUpPk:vector(count) ETV
attr interpolationmode none
attr source packetSentToUpper
attr title "packets passed up, vector(count)"
vector 24 Wireless_3_1.hostB.udp packetSent:vector(packetBytes) ETV
attr interpolationmode none
attr source packetSent
attr title "packets sent, vector(packetBytes)"
vector 25 Wireless_3_1.hostC.udp packetSent:vector(packetBytes) ETV
attr interpolationmode none
attr source packetSent
attr title "packets sent, vector(packetBytes)"
vector 26 Wireless_3_1.hostD.udp packetSent:vector(packetBytes) ETV
attr interpolationmode none
attr source packetSent
attr title "packets sent, vector(packetBytes)"
vector 27 Wireless_3_1.hostB.wlan[0].mac.queue packetPushed:vector(packetBytes) ETV
attr interpolationmode none
attr title "packet pushed, vector(packetBytes)"
vector 28 Wireless_3_1.hostB.wlan[0].mac.queue queueLength:vector ETV
attr interpolationmode sample-hold
attr source "count(packetPushed) - count(packetPopped) - count(packetRemoved) - count(packetDropped)"
attr title "queue length, vector"
vector 29 Wireless_3_1.hostB.wlan[0].mac.queue packetPopped:vector(packetBytes) ETV
attr interpolationmode none
attr title "packet popped, vector(packetBytes)"
vector 30 Wireless_3_1.hostB.wlan[0].mac.queue queueingTime:vector ETV
attr interpolationmode none
attr source queueingTime(packetPopped)
attr title "queueing times, vector"
attr unit s
vector 31 Wireless_3_1.hostC.wlan[0].mac.queue packetPushed:vector(packetBytes) ETV
attr interpolationmode none
attr title "packet pushed, vector(packetBytes)"
vector 32 Wireless_3_1.hostC.wlan[0].mac.queue queueLength:vector ETV
attr interpolationmode sample-hold
attr source "count(packetPushed) - count(packetPopped) - count(packetRemoved) - count(packetDropped)"
attr title "queue length, vector"
vector 33 Wireless_3_1.hostC.wlan[0].mac.queue packetPopped:vector(packetBytes) ETV
attr interpolationmode none
attr title "packet popped, vector(packetBytes)"
vector 34 Wireless_3_1.hostC.wlan[0].mac.queue queueingTime:vector ETV
attr interpolationmode none
attr source queueingTime(packetPopped)
attr title "queueing times, vector"
attr unit s
vector 35 Wireless_3_1.hostD.wlan[0].mac.queue packetPushed:vector(packetBytes) ETV
attr interpolationmode none
attr title "packet pushed, vector(packetBytes)"
vector 36 Wireless_3_1.hostD.wlan[0].mac.queue queueLength:vector ETV
attr interpolationmode sample-hold
attr source "count(packetPushed) - count(packetPopped) - count(packetRemoved) - count(packetDropped)"
attr title "queue length, vector"
vector 37 Wireless_3_1.hostD.wlan[0].mac.queue packetPopped:vector(packetBytes) ETV
attr interpolationmode none
attr title "packet popped, vector(packetBytes)"
vector 38 Wireless_3_1.hostD.wlan[0].mac.queue queueingTime:vector ETV
attr interpolationmode none
attr source queueingTime(packetPopped)
attr title "queueing times, vector"
attr unit s
vector 39 Wireless_3_1.hostC.wlan[0].radio transmissionState:vector ETV
attr interpolationmode sample-hold
attr source transmissionStateChanged
attr title "Radio transmission state, vector"
vector 40 Wireless_3_1.hostD.wlan[0].radio transmissionState:vector ETV
attr interpolationmode sample-hold
attr source transmissionStateChanged
attr title "Radio transmission state, vector"
vector 41 Wireless_3_1.hostA.wlan[0].mac packetDropIncorrectlyReceived:vector(packetBytes) ETV
attr interpolationmode none
attr source packetDropReasonIsIncorrectlyReceived(packetDropped)
attr title "packet drop: incorrectly received, vector(packetBytes)"
vector 42 Wireless_3_1.hostB.wlan[0].mac packetDropIncorrectlyReceived:vector(packetBytes) ETV
attr interpolationmode none
attr source packetDropReasonIsIncorrectlyReceived(packetDropped)
attr title "packet drop: incorrectly received, vector(packetBytes)"
vector 43 Wireless_3_1.hostA.udp passedUpPk:vector(count) ETV
attr interpolationmode none
attr source packetSentToUpper
attr title "packets passed up, vector(count)"
vector 44 Wireless_3_1.hostD.wlan[0].mac packetDropNotAddressedToUs:vector(packetBytes) ETV
attr interpolationmode none
attr source packetDropReasonIsNotAddressedToUs(packetDropped)
attr title "packet drop: not addressed to us, vector(packetBytes)"
vector 45 Wireless_3_1.hostB.wlan[0].mac packetDropNotAddressedToUs:vector(packetBytes) ETV
attr interpolationmode none
attr source packetDropReasonIsNotAddressedToUs(packetDropped)
attr title "packet drop: not addressed to us, vector(packetBytes)"
vector 46 Wireless_3_1.hostB.wlan[0].radio transmissionState:vector ETV
attr interpolationmode sample-hold
attr source transmissionStateChanged
attr title "Radio transmission state, vector"
vector 47 Wireless_3_1.hostC.wlan[0].mac packetDropNotAddressedToUs:vector(packetBytes) ETV
attr interpolationmode none
attr source packetDropReasonIsNotAddressedToUs(packetDropped)
attr title "packet drop: not addressed to us, vector(packetBytes)"
0	11209 191 0 151 0 0.005604020016 11 0 3 22 56
1	11400 70 0 108 0 0.003692010008 5 0 3 7 17
2	11470 112 0 79 0 0.002788003336 7 0 3 12 30
3	11582 112 0 136 0 0.00537601668 7 0 3 12 30
4	11694 355 0 151 0 0.005604020016 17 0 3 21 45
5	12049 388 0 152 0 0.005604023352 18 0 3 32 76
6	12437 388 0 153 0 0.005604023352 18 0 3 29 67
7	12825 386 0 154 0 0.005604023352 18 0 3 29 67
8	13211 9 3 3 0 0 1 12 12 12 144
9	13220 10 11 11 0 0 1 32 32 32 1024
10	13230 11 11 11 0 0 1 32 32 32 1024
11	13241 11 12 12 0 0 1 59 59 59 3481
12	13252 20 12 12 0 0 2 0 1 1 1
13	13272 11 12 12 0 0 1 59 59 59 3481
14	13283 10 12 12 0 0 1 0 0 0 0
15	13293 85 14 140 0 0.005376020016 4 12 12 48 576
16	13378 10 14 14 0 0 1 1 1 1 1
17	13388 350 16 151 0.00053 0.005604020016 16 0 2 16 24
18	13738 24 31 31 0.001076003336 0.001076003336 1 12 12 12 144
19	13762 23 31 31 0.001076003336 0.001076003336 1 1 1 1 1
20	13785 24 32 32 0.001076003336 0.001076003336 1 12 12 12 144
21	13809 23 32 32 0.001076003336 0.001076003336 1 1 1 1 1
22	13832 24 33 33 0.001076003336 0.001076003336 1 12 12 12 144
23	13856 23 33 33 0.001076003336 0.001076003336 1 1 1 1 1
24	13879 24 37 37 0.001076003336 0.001076003336 1 12 12 12 144
25	13903 24 38 38 0.001076003336 0.001076003336 1 12 12 12 144
26	13927 24 39 39 0.001076003336 0.001076003336 1 12 12 12 144
27	13951 24 43 43 0.001076003336 0.001076003336 1 59 59 59 3481
28	13975 46 43 43 0.001076003336 0.001076003336 2 0 1 1 1
29	14021 24 43 43 0.001076003336 0.001076003336 1 59 59 59 3481
30	14045 23 43 43 0.001076003336 0.001076003336 1 0 0 0 0
31	14068 24 44 44 0.001076003336 0.001076003336 1 59 59 59 3481
32	14092 46 44 44 0.001076003336 0.001076003336 2 0 1 1 1
33	14138 24 44 44 0.001076003336 0.001076003336 1 59 59 59 3481
34	14162 23 44 44 0.001076003336 0.001076003336 1 0 0 0 0
35	14185 24 45 45 0.001076003336 0.001076003336 1 59 59 59 3481
36	14209 46 45 45 0.001076003336 0.001076003336 2 0 1 1 1
37	14255 24 45 45 0.001076003336 0.001076003336 1 59 59 59 3481
38	14279 23 45 45 0.001076003336 0.001076003336 1 0 0 0 0
39	14302 184 49 79 0.001286003336 0.002788003336 8 0 2 8 12
40	14486 184 50 136 0.001286003336 0.00537601668 8 0 2 8 12
41	14670 24 63 63 0.001832006672 0.001832006672 1 59 59 59 3481
42	14694 24 67 67 0.001832008053 0.001832008053 1 59 59 59 3481
43	14718 71 83 140 0.002788006672 0.005376020016 3 1 3 6 14
44	14789 49 86 115 0.002788008053 0.003692014725 2 59 59 118 6962
45	14838 49 88 144 0.002788010007 0.005376021397 2 59 59 118 6962
46	14887 96 103 108 0.003146010008 0.003692010008 4 0 2 4 6
47	14983 50 117 145 0.003692016679 0.005376021397 2 59 59 118 6962

