version 2
run Wireless01-153-20200717-17:54:50-14091
attr configname Wireless01
attr datetime 20200717-17:54:50
attr experiment Wireless01
attr inifile omnetpp.ini
attr iterationvars $name=Wireless_6_5
attr iterationvarsf name=Wireless#_6#_5-
attr measurement $name=Wireless_6_5
attr network "${name=WirelessA, Wireless_3_1, Wireless_3_5, Wireless_3_10, Wireless_6_1,Wireless_6_5,Wireless_6_10,Wireless_12_1,Wireless_12_5,Wireless_12_10}"
attr processid 14091
attr repetition 3
attr replication #3
attr resultdir results
attr runnumber 153
attr seedset 153
itervar name Wireless_6_5
param *.hostA.numApps 1
param *.hostA.app[0].typename "\"TDOAApp\""
param *.hostA.app[0].destAddresses "\"Broadcast\""
param *.hostA.app[0].destPort 5000
param *.hostA.app[0].localPort 6000
param *.hostA.app[0].isReceiver false
param *.hostA.app[0].Nome_arquivo "\"Wireless_6_5.csv\""
param *.host*.numApps 1
param *.host*.app[0].typename "\"TDOAApp\""
param *.host*.app[0].localPort 5000
param *.host*.app[0].destPort 6000
param *.host*.app[0].destAddresses "\"hostA\""
param *.host*.app[0].isReceiver true
param *.host*.wlan[0].typename "\"WirelessInterface\""
param *.radioMedium.typename "\"ApskScalarRadioMedium\""
param *.radioMedium.backgroundNoise.power -90dBm
param *.radioMedium.mediumLimitCache.centerFrequency 2GHz
param *.host*.wlan[0].radio.typename "\"ApskScalarRadio\""
param *.host*.wlan[0].radio.centerFrequency 2GHz
param *.host*.wlan[0].radio.bandwidth 2MHz
param *.host*.wlan[0].radio.transmitter.power 1.4mW
param *.host*.wlan[0].radio.transmitter.preambleDuration 10us
param *.host*.wlan[0].radio.transmitter.headerLength 8B
param *.host*.wlan[0].radio.receiver.sensitivity -85dBm
param *.host*.wlan[0].radio.receiver.energyDetection -85dBm
param *.host*.wlan[0].radio.receiver.snirThreshold 4dB
param *.host*.wlan[0].mac.typename "\"CsmaCaMac\""
param *.host*.wlan[0].mac.ackTimeout 300us
param *.host*.wlan[0].mac.useAck true
param *.host*.wlan[0].mac.fullDuplex false
param *.host*.wlan[0].radio.receiver.ignoreInterference true
param *.host*.wlan[0].mac.headerLength 23B
param *.host*.**.bitrate 1Mbps
param *.host*.ipv4.arp.typename "\"GlobalArp\""
param **.ip.limitedBroadcast true

vector 0 Wireless_6_5.hostA.wlan[0].radio radioMode:vector ETV
attr interpolationmode sample-hold
attr source radioModeChanged
attr title "Radio mode, vector"
vector 1 Wireless_6_5.hostB.wlan[0].radio radioMode:vector ETV
attr interpolationmode sample-hold
attr source radioModeChanged
attr title "Radio mode, vector"
vector 2 Wireless_6_5.hostC.wlan[0].radio radioMode:vector ETV
attr interpolationmode sample-hold
attr source radioModeChanged
attr title "Radio mode, vector"
vector 3 Wireless_6_5.hostD.wlan[0].radio radioMode:vector ETV
attr interpolationmode sample-hold
attr source radioModeChanged
attr title "Radio mode, vector"
vector 4 Wireless_6_5.hostE.wlan[0].radio radioMode:vector ETV
attr interpolationmode sample-hold
attr source radioModeChanged
attr title "Radio mode, vector"
vector 5 Wireless_6_5.hostF.wlan[0].radio radioMode:vector ETV
attr interpolationmode sample-hold
attr source radioModeChanged
attr title "Radio mode, vector"
vector 6 Wireless_6_5.hostG.wlan[0].radio radioMode:vector ETV
attr interpolationmode sample-hold
attr source radioModeChanged
attr title "Radio mode, vector"
vector 7 Wireless_6_5.hostA.wlan[0].radio receptionState:vector ETV
attr interpolationmode sample-hold
attr source receptionStateChanged
attr title "Radio reception state, vector"
vector 8 Wireless_6_5.hostB.wlan[0].radio receptionState:vector ETV
attr interpolationmode sample-hold
attr source receptionStateChanged
attr title "Radio reception state, vector"
vector 9 Wireless_6_5.hostC.wlan[0].radio receptionState:vector ETV
attr interpolationmode sample-hold
attr source receptionStateChanged
attr title "Radio reception state, vector"
vector 10 Wireless_6_5.hostD.wlan[0].radio receptionState:vector ETV
attr interpolationmode sample-hold
attr source receptionStateChanged
attr title "Radio reception state, vector"
vector 11 Wireless_6_5.hostE.wlan[0].radio receptionState:vector ETV
attr interpolationmode sample-hold
attr source receptionStateChanged
attr title "Radio reception state, vector"
vector 12 Wireless_6_5.hostF.wlan[0].radio receptionState:vector ETV
attr interpolationmode sample-hold
attr source receptionStateChanged
attr title "Radio reception state, vector"
vector 13 Wireless_6_5.hostG.wlan[0].radio receptionState:vector ETV
attr interpolationmode sample-hold
attr source receptionStateChanged
attr title "Radio reception state, vector"
vector 14 Wireless_6_5.hostA.udp packetSent:vector(packetBytes) ETV
attr interpolationmode none
attr source packetSent
attr title "packets sent, vector(packetBytes)"
vector 15 Wireless_6_5.hostA.lo[0].lo rcvdPkFromHl:vector(packetBytes) ETV
attr interpolationmode none
attr source packetReceivedFromUpper
attr title "packets received from higher layer, vector(packetBytes)"
vector 16 Wireless_6_5.hostA.lo[0].lo passedUpPk:vector(packetBytes) ETV
attr interpolationmode none
attr source packetSentToUpper
attr title "packets passed to higher layer, vector(packetBytes)"
vector 17 Wireless_6_5.hostA.wlan[0].mac.queue packetPushed:vector(packetBytes) ETV
attr interpolationmode none
attr title "packet pushed, vector(packetBytes)"
vector 18 Wireless_6_5.hostA.wlan[0].mac.queue queueLength:vector ETV
attr interpolationmode sample-hold
attr source "count(packetPushed) - count(packetPopped) - count(packetRemoved) - count(packetDropped)"
attr title "queue length, vector"
vector 19 Wireless_6_5.hostA.wlan[0].mac.queue packetPopped:vector(packetBytes) ETV
attr interpolationmode none
attr title "packet popped, vector(packetBytes)"
vector 20 Wireless_6_5.hostA.wlan[0].mac.queue queueingTime:vector ETV
attr interpolationmode none
attr source queueingTime(packetPopped)
attr title "queueing times, vector"
attr unit s
vector 21 Wireless_6_5.hostA.udp packetReceived:vector(packetBytes) ETV
attr interpolationmode none
attr source packetReceived
attr title "packets received, vector(packetBytes)"
vector 22 Wireless_6_5.hostA.udp droppedPkWrongPort:vector(count) ETV
attr interpolationmode none
attr source packetDropReasonIsNoPortFound(packetDropped)
attr title "packets dropped (wrong port), vector(count)"
vector 23 Wireless_6_5.hostA.wlan[0].radio transmissionState:vector ETV
attr interpolationmode sample-hold
attr source transmissionStateChanged
attr title "Radio transmission state, vector"
vector 24 Wireless_6_5.hostB.udp packetReceived:vector(packetBytes) ETV
attr interpolationmode none
attr source packetReceived
attr title "packets received, vector(packetBytes)"
vector 25 Wireless_6_5.hostB.udp passedUpPk:vector(count) ETV
attr interpolationmode none
attr source packetSentToUpper
attr title "packets passed up, vector(count)"
vector 26 Wireless_6_5.hostC.udp packetReceived:vector(packetBytes) ETV
attr interpolationmode none
attr source packetReceived
attr title "packets received, vector(packetBytes)"
vector 27 Wireless_6_5.hostC.udp passedUpPk:vector(count) ETV
attr interpolationmode none
attr source packetSentToUpper
attr title "packets passed up, vector(count)"
vector 28 Wireless_6_5.hostD.udp packetReceived:vector(packetBytes) ETV
attr interpolationmode none
attr source packetReceived
attr title "packets received, vector(packetBytes)"
vector 29 Wireless_6_5.hostD.udp passedUpPk:vector(count) ETV
attr interpolationmode none
attr source packetSentToUpper
attr title "packets passed up, vector(count)"
vector 30 Wireless_6_5.hostE.udp packetReceived:vector(packetBytes) ETV
attr interpolationmode none
attr source packetReceived
attr title "packets received, vector(packetBytes)"
vector 31 Wireless_6_5.hostE.udp passedUpPk:vector(count) ETV
attr interpolationmode none
attr source packetSentToUpper
attr title "packets passed up, vector(count)"
vector 32 Wireless_6_5.hostF.udp packetReceived:vector(packetBytes) ETV
attr interpolationmode none
attr source packetReceived
attr title "packets received, vector(packetBytes)"
vector 33 Wireless_6_5.hostF.udp passedUpPk:vector(count) ETV
attr interpolationmode none
attr source packetSentToUpper
attr title "packets passed up, vector(count)"
vector 34 Wireless_6_5.hostG.udp packetReceived:vector(packetBytes) ETV
attr interpolationmode none
attr source packetReceived
attr title "packets received, vector(packetBytes)"
vector 35 Wireless_6_5.hostG.udp passedUpPk:vector(count) ETV
attr interpolationmode none
attr source packetSentToUpper
attr title "packets passed up, vector(count)"
vector 36 Wireless_6_5.hostB.udp packetSent:vector(packetBytes) ETV
attr interpolationmode none
attr source packetSent
attr title "packets sent, vector(packetBytes)"
vector 37 Wireless_6_5.hostC.udp packetSent:vector(packetBytes) ETV
attr interpolationmode none
attr source packetSent
attr title "packets sent, vector(packetBytes)"
vector 38 Wireless_6_5.hostD.udp packetSent:vector(packetBytes) ETV
attr interpolationmode none
attr source packetSent
attr title "packets sent, vector(packetBytes)"
vector 39 Wireless_6_5.hostE.udp packetSent:vector(packetBytes) ETV
attr interpolationmode none
attr source packetSent
attr title "packets sent, vector(packetBytes)"
vector 40 Wireless_6_5.hostF.udp packetSent:vector(packetBytes) ETV
attr interpolationmode none
attr source packetSent
attr title "packets sent, vector(packetBytes)"
vector 41 Wireless_6_5.hostG.udp packetSent:vector(packetBytes) ETV
attr interpolationmode none
attr source packetSent
attr title "packets sent, vector(packetBytes)"
vector 42 Wireless_6_5.hostB.wlan[0].mac.queue packetPushed:vector(packetBytes) ETV
attr interpolationmode none
attr title "packet pushed, vector(packetBytes)"
vector 43 Wireless_6_5.hostB.wlan[0].mac.queue queueLength:vector ETV
attr interpolationmode sample-hold
attr source "count(packetPushed) - count(packetPopped) - count(packetRemoved) - count(packetDropped)"
attr title "queue length, vector"
vector 44 Wireless_6_5.hostB.wlan[0].mac.queue packetPopped:vector(packetBytes) ETV
attr interpolationmode none
attr title "packet popped, vector(packetBytes)"
vector 45 Wireless_6_5.hostB.wlan[0].mac.queue queueingTime:vector ETV
attr interpolationmode none
attr source queueingTime(packetPopped)
attr title "queueing times, vector"
attr unit s
vector 46 Wireless_6_5.hostC.wlan[0].mac.queue packetPushed:vector(packetBytes) ETV
attr interpolationmode none
attr title "packet pushed, vector(packetBytes)"
vector 47 Wireless_6_5.hostC.wlan[0].mac.queue queueLength:vector ETV
attr interpolationmode sample-hold
attr source "count(packetPushed) - count(packetPopped) - count(packetRemoved) - count(packetDropped)"
attr title "queue length, vector"
vector 48 Wireless_6_5.hostC.wlan[0].mac.queue packetPopped:vector(packetBytes) ETV
attr interpolationmode none
attr title "packet popped, vector(packetBytes)"
vector 49 Wireless_6_5.hostC.wlan[0].mac.queue queueingTime:vector ETV
attr interpolationmode none
attr source queueingTime(packetPopped)
attr title "queueing times, vector"
attr unit s
vector 50 Wireless_6_5.hostD.wlan[0].mac.queue packetPushed:vector(packetBytes) ETV
attr interpolationmode none
attr title "packet pushed, vector(packetBytes)"
vector 51 Wireless_6_5.hostD.wlan[0].mac.queue queueLength:vector ETV
attr interpolationmode sample-hold
attr source "count(packetPushed) - count(packetPopped) - count(packetRemoved) - count(packetDropped)"
attr title "queue length, vector"
vector 52 Wireless_6_5.hostD.wlan[0].mac.queue packetPopped:vector(packetBytes) ETV
attr interpolationmode none
attr title "packet popped, vector(packetBytes)"
vector 53 Wireless_6_5.hostD.wlan[0].mac.queue queueingTime:vector ETV
attr interpolationmode none
attr source queueingTime(packetPopped)
attr title "queueing times, vector"
attr unit s
vector 54 Wireless_6_5.hostE.wlan[0].mac.queue packetPushed:vector(packetBytes) ETV
attr interpolationmode none
attr title "packet pushed, vector(packetBytes)"
vector 55 Wireless_6_5.hostE.wlan[0].mac.queue queueLength:vector ETV
attr interpolationmode sample-hold
attr source "count(packetPushed) - count(packetPopped) - count(packetRemoved) - count(packetDropped)"
attr title "queue length, vector"
vector 56 Wireless_6_5.hostE.wlan[0].mac.queue packetPopped:vector(packetBytes) ETV
attr interpolationmode none
attr title "packet popped, vector(packetBytes)"
vector 57 Wireless_6_5.hostE.wlan[0].mac.queue queueingTime:vector ETV
attr interpolationmode none
attr source queueingTime(packetPopped)
attr title "queueing times, vector"
attr unit s
vector 58 Wireless_6_5.hostF.wlan[0].mac.queue packetPushed:vector(packetBytes) ETV
attr interpolationmode none
attr title "packet pushed, vector(packetBytes)"
vector 59 Wireless_6_5.hostF.wlan[0].mac.queue queueLength:vector ETV
attr interpolationmode sample-hold
attr source "count(packetPushed) - count(packetPopped) - count(packetRemoved) - count(packetDropped)"
attr title "queue length, vector"
vector 60 Wireless_6_5.hostF.wlan[0].mac.queue packetPopped:vector(packetBytes) ETV
attr interpolationmode none
attr title "packet popped, vector(packetBytes)"
vector 61 Wireless_6_5.hostF.wlan[0].mac.queue queueingTime:vector ETV
attr interpolationmode none
attr source queueingTime(packetPopped)
attr title "queueing times, vector"
attr unit s
vector 62 Wireless_6_5.hostG.wlan[0].mac.queue packetPushed:vector(packetBytes) ETV
attr interpolationmode none
attr title "packet pushed, vector(packetBytes)"
vector 63 Wireless_6_5.hostG.wlan[0].mac.queue queueLength:vector ETV
attr interpolationmode sample-hold
attr source "count(packetPushed) - count(packetPopped) - count(packetRemoved) - count(packetDropped)"
attr title "queue length, vector"
vector 64 Wireless_6_5.hostG.wlan[0].mac.queue packetPopped:vector(packetBytes) ETV
attr interpolationmode none
attr title "packet popped, vector(packetBytes)"
vector 65 Wireless_6_5.hostG.wlan[0].mac.queue queueingTime:vector ETV
attr interpolationmode none
attr source queueingTime(packetPopped)
attr title "queueing times, vector"
attr unit s
vector 66 Wireless_6_5.hostF.wlan[0].radio transmissionState:vector ETV
attr interpolationmode sample-hold
attr source transmissionStateChanged
attr title "Radio transmission state, vector"
vector 67 Wireless_6_5.hostG.wlan[0].radio transmissionState:vector ETV
attr interpolationmode sample-hold
attr source transmissionStateChanged
attr title "Radio transmission state, vector"
vector 68 Wireless_6_5.hostA.wlan[0].mac packetDropIncorrectlyReceived:vector(packetBytes) ETV
attr interpolationmode none
attr source packetDropReasonIsIncorrectlyReceived(packetDropped)
attr title "packet drop: incorrectly received, vector(packetBytes)"
vector 69 Wireless_6_5.hostC.wlan[0].mac packetDropNotAddressedToUs:vector(packetBytes) ETV
attr interpolationmode none
attr source packetDropReasonIsNotAddressedToUs(packetDropped)
attr title "packet drop: not addressed to us, vector(packetBytes)"
vector 70 Wireless_6_5.hostB.wlan[0].mac packetDropNotAddressedToUs:vector(packetBytes) ETV
attr interpolationmode none
attr source packetDropReasonIsNotAddressedToUs(packetDropped)
attr title "packet drop: not addressed to us, vector(packetBytes)"
vector 71 Wireless_6_5.hostD.wlan[0].mac packetDropIncorrectlyReceived:vector(packetBytes) ETV
attr interpolationmode none
attr source packetDropReasonIsIncorrectlyReceived(packetDropped)
attr title "packet drop: incorrectly received, vector(packetBytes)"
vector 72 Wireless_6_5.hostE.wlan[0].mac packetDropIncorrectlyReceived:vector(packetBytes) ETV
attr interpolationmode none
attr source packetDropReasonIsIncorrectlyReceived(packetDropped)
attr title "packet drop: incorrectly received, vector(packetBytes)"
vector 73 Wireless_6_5.hostC.wlan[0].radio transmissionState:vector ETV
attr interpolationmode sample-hold
attr source transmissionStateChanged
attr title "Radio transmission state, vector"
vector 74 Wireless_6_5.hostD.wlan[0].mac packetDropNotAddressedToUs:vector(packetBytes) ETV
attr interpolationmode none
attr source packetDropReasonIsNotAddressedToUs(packetDropped)
attr title "packet drop: not addressed to us, vector(packetBytes)"
vector 75 Wireless_6_5.hostF.wlan[0].mac packetDropNotAddressedToUs:vector(packetBytes) ETV
attr interpolationmode none
attr source packetDropReasonIsNotAddressedToUs(packetDropped)
attr title "packet drop: not addressed to us, vector(packetBytes)"
vector 76 Wireless_6_5.hostA.udp passedUpPk:vector(count) ETV
attr interpolationmode none
attr source packetSentToUpper
attr title "packets passed up, vector(count)"
vector 77 Wireless_6_5.hostE.wlan[0].mac packetDropNotAddressedToUs:vector(packetBytes) ETV
attr interpolationmode none
attr source packetDropReasonIsNotAddressedToUs(packetDropped)
attr title "packet drop: not addressed to us, vector(packetBytes)"
vector 78 Wireless_6_5.hostG.wlan[0].mac packetDropNotAddressedToUs:vector(packetBytes) ETV
attr interpolationmode none
attr source packetDropReasonIsNotAddressedToUs(packetDropped)
attr title "packet drop: not addressed to us, vector(packetBytes)"
vector 79 Wireless_6_5.hostE.wlan[0].radio transmissionState:vector ETV
attr interpolationmode sample-hold
attr source transmissionStateChanged
attr title "Radio transmission state, vector"
vector 80 Wireless_6_5.hostB.wlan[0].radio transmissionState:vector ETV
attr interpolationmode sample-hold
attr source transmissionStateChanged
attr title "Radio transmission state, vector"
vector 81 Wireless_6_5.hostD.wlan[0].radio transmissionState:vector ETV
attr interpolationmode sample-hold
attr source transmissionStateChanged
attr title "Radio transmission state, vector"
vector 82 Wireless_6_5.hostF.wlan[0].mac packetDropIncorrectlyReceived:vector(packetBytes) ETV
attr interpolationmode none
attr source packetDropReasonIsIncorrectlyReceived(packetDropped)
attr title "packet drop: incorrectly received, vector(packetBytes)"
0	0	0	0
0	0	0	0
0	0	0	2
0	22	0.00065	3
0	30	0.001196	2
0	150	0.002418062243	3
0	158	0.002636062243	2
0	200	0.003642095599	3
0	208	0.003860095599	2
0	288	0.005102162311	3
0	296	0.005320162311	2
0	336	0.005986195667	3
0	344	0.006204195667	2
0	383	0.006910229023	3
0	391	0.007128229023	2
0	429	0.007874262379	3
0	437	0.008092262379	2
1	0	0	0
1	0	0	0
1	0	0	2
1	225	0.003930112277	3
1	241	0.004476112277	2
1	405	0.007318245701	3
1	413	0.007864245701	2
2	0	0	0
2	0	0	0
2	0	0	2
2	124	0.001862045565	3
2	134	0.002408045565	2
3	0	0	0
3	0	0	0
3	0	0	2
3	226	0.003930112277	3
3	242	0.004476112277	2
3	312	0.005430178989	3
3	320	0.005976178989	2
4	0	0	0
4	0	0	0
4	0	0	2
4	176	0.003086078921	3
4	184	0.003632078921	2
5	0	0	0
5	0	0	0
5	0	0	2
5	85	0.001246016678	3
5	101	0.001792016678	2
5	359	0.006354212345	3
5	367	0.006900212345	2
6	0	0	0
6	0	0	0
6	0	0	2
6	86	0.001246016678	3
6	102	0.001792016678	2
6	262	0.004546145633	3
6	272	0.005092145633	2
7	0	0	1
7	22	0.00065	0
7	30	0.001196	1
7	89	0.001246033356	3
7	103	0.001792033356	1
7	126	0.001862062243	3
7	135	0.002408062243	1
7	150	0.002418062243	0
7	158	0.002636062243	1
7	178	0.003086095599	3
7	185	0.003632095599	1
7	200	0.003642095599	0
7	208	0.003860095599	1
7	229	0.003930128955	3
7	243	0.004476128955	1
7	264	0.004546162311	3
7	273	0.005092162311	1
7	288	0.005102162311	0
7	296	0.005320162311	1
7	314	0.005430195667	3
7	321	0.005976195667	1
7	336	0.005986195667	0
7	344	0.006204195667	1
7	361	0.006354229023	3
7	368	0.006900229023	1
7	383	0.006910229023	0
7	391	0.007128229023	1
7	407	0.007318262379	3
7	414	0.007864262379	1
7	429	0.007874262379	0
7	437	0.008092262379	1
8	0	0	1
8	24	0.000650016678	3
8	31	0.001196016678	1
8	93	0.001246033356	3
8	107	0.001792033356	2
8	112	0.001792045565	1
8	131	0.001862078921	3
8	148	0.002408078921	1
8	152	0.002418078921	3
8	159	0.002636078921	1
8	179	0.003086095599	3
8	186	0.003632095599	1
8	202	0.003642112277	3
8	209	0.003860112277	1
8	225	0.003930112277	0
8	241	0.004476112277	2
8	255	0.004476141164	1
8	265	0.004546162311	3
8	274	0.005092162311	1
8	290	0.005102178989	3
8	297	0.005320178989	1
8	317	0.005430207876	3
8	330	0.005976207876	1
8	338	0.005986212345	3
8	345	0.006204212345	1
8	364	0.006354241232	3
8	377	0.006900241232	1
8	385	0.006910245701	3
8	392	0.007128245701	1
8	405	0.007318245701	0
8	413	0.007864245701	1
8	431	0.007874279057	3
8	438	0.008092279057	1
9	0	0	1
9	25	0.000650016678	3
9	32	0.001196016678	1
9	90	0.001246033356	3
9	104	0.001792033356	2
9	114	0.001792045565	1
9	124	0.001862045565	0
9	134	0.002408045565	1
9	153	0.002418078921	3
9	160	0.002636078921	1
9	181	0.003086107808	3
9	194	0.003632107808	1
9	203	0.003642112277	3
9	210	0.003860112277	1
9	233	0.003930128955	3
9	247	0.004476128955	2
9	258	0.004476145633	1
9	267	0.00454617452	3
9	282	0.00509217452	1
9	291	0.005102178989	3
9	298	0.005320178989	1
9	315	0.005430195667	3
9	322	0.005976195667	1
9	339	0.005986212345	3
9	346	0.006204212345	1
9	362	0.006354229023	3
9	369	0.006900229023	1
9	386	0.006910245701	3
9	393	0.007128245701	1
9	412	0.007318279057	3
9	427	0.007864279057	1
9	432	0.007874279057	3
9	439	0.008092279057	1
10	0	0	1
10	26	0.000650016678	3
10	33	0.001196016678	1
10	96	0.001246045565	3
10	113	0.001792045565	2
10	119	0.001792050034	1
10	127	0.001862062243	3
10	136	0.002408062243	1
10	154	0.002418078921	3
10	161	0.002636078921	1
10	180	0.003086095599	3
10	187	0.003632095599	1
10	204	0.003642112277	3
10	211	0.003860112277	1
10	226	0.003930112277	0
10	242	0.004476112277	2
10	253	0.004476141164	1
10	269	0.004546178989	3
10	286	0.005092178989	1
10	292	0.005102178989	3
10	299	0.005320178989	1
10	312	0.005430178989	0
10	320	0.005976178989	1
10	340	0.005986212345	3
10	347	0.006204212345	1
10	365	0.006354241232	3
10	378	0.006900241232	1
10	387	0.006910245701	3
10	394	0.007128245701	1
10	410	0.007318274588	3
10	423	0.007864274588	1
10	433	0.007874279057	3
10	440	0.008092279057	1
11	0	0	1
11	27	0.000650016678	3
11	34	0.001196016678	1
11	98	0.001246045565	3
11	115	0.001792045565	2
11	118	0.001792050034	1
11	129	0.001862074452	3
11	144	0.002408074452	1
11	155	0.002418078921	3
11	162	0.002636078921	1
11	176	0.003086078921	0
11	184	0.003632078921	1
11	205	0.003642112277	3
11	212	0.003860112277	1
11	230	0.003930128955	3
11	244	0.004476128955	1
11	268	0.00454617452	3
11	283	0.00509217452	1
11	293	0.005102178989	3
11	300	0.005320178989	1
11	316	0.005430195667	3
11	323	0.005976195667	1
11	341	0.005986212345	3
11	348	0.006204212345	1
11	366	0.006354245701	3
11	381	0.006900245701	1
11	388	0.006910245701	3
11	395	0.007128245701	1
11	408	0.007318262379	3
11	415	0.007864262379	1
11	434	0.007874279057	3
11	441	0.008092279057	1
12	0	0	1
12	28	0.000650016678	3
12	35	0.001196016678	1
12	85	0.001246016678	0
12	101	0.001792016678	2
12	108	0.001792033356	1
12	128	0.001862062243	3
12	137	0.002408062243	1
12	156	0.002418078921	3
12	163	0.002636078921	1
12	183	0.003086112277	3
12	198	0.003632112277	1
12	206	0.003642112277	3
12	213	0.003860112277	1
12	236	0.003930141164	3
12	254	0.004476141164	1
12	266	0.004546162311	3
12	275	0.005092162311	1
12	294	0.005102178989	3
12	301	0.005320178989	1
12	318	0.005430207876	3
12	331	0.005976207876	1
12	342	0.005986212345	3
12	349	0.006204212345	1
12	359	0.006354212345	0
12	367	0.006900212345	1
12	389	0.006910245701	3
12	396	0.007128245701	1
12	411	0.007318274588	3
12	424	0.007864274588	1
12	435	0.007874279057	3
12	442	0.008092279057	1
13	0	0	1
13	29	0.000650016678	3
13	36	0.001196016678	1
13	86	0.001246016678	0
13	102	0.001792016678	2
13	105	0.001792033356	1
13	130	0.001862074452	3
13	145	0.002408074452	1
13	157	0.002418078921	3
13	164	0.002636078921	1
13	182	0.003086107808	3
13	195	0.003632107808	1
13	207	0.003642112277	3
13	214	0.003860112277	1
13	231	0.003930128955	3
13	245	0.004476128955	2
13	259	0.004476145633	1
13	262	0.004546145633	0
13	272	0.005092145633	1
13	295	0.005102178989	3
13	302	0.005320178989	1
13	319	0.005430212345	3
13	334	0.005976212345	1
13	343	0.005986212345	3
13	350	0.006204212345	1
13	363	0.006354229023	3
13	370	0.006900229023	1
13	390	0.006910245701	3
13	397	0.007128245701	1
13	409	0.007318262379	3
13	416	0.007864262379	1
13	436	0.007874279057	3
13	443	0.008092279057	1
14	3	0	12
15	17	0	32
16	17	0	32
17	18	0	59
18	18	0	1
18	18	0	0
19	18	0	59
20	18	0	0
21	20	0	12
21	142	0.002408062243	12
21	192	0.003632095599	12
21	280	0.005092162311	12
21	328	0.005976195667	12
21	375	0.006900229023	12
21	421	0.007864262379	12
22	20	0	1
23	22	0.00065	1
23	23	0.00065	2
23	30	0.001196	1
23	30	0.001196	0
23	150	0.002418062243	1
23	151	0.002418062243	2
23	158	0.002636062243	1
23	158	0.002636062243	0
23	200	0.003642095599	1
23	201	0.003642095599	2
23	208	0.003860095599	1
23	208	0.003860095599	0
23	288	0.005102162311	1
23	289	0.005102162311	2
23	296	0.005320162311	1
23	296	0.005320162311	0
23	336	0.005986195667	1
23	337	0.005986195667	2
23	344	0.006204195667	1
23	344	0.006204195667	0
23	383	0.006910229023	1
23	384	0.006910229023	2
23	391	0.007128229023	1
23	391	0.007128229023	0
23	429	0.007874262379	1
23	430	0.007874262379	2
23	437	0.008092262379	1
23	437	0.008092262379	0
24	49	0.001196016678	12
25	49	0.001196016678	1
26	50	0.001196016678	12
27	50	0.001196016678	1
28	51	0.001196016678	12
29	51	0.001196016678	1
30	52	0.001196016678	12
31	52	0.001196016678	1
32	53	0.001196016678	12
33	53	0.001196016678	1
34	54	0.001196016678	12
35	54	0.001196016678	1
36	61	0.001196016678	12
37	62	0.001196016678	12
38	63	0.001196016678	12
39	64	0.001196016678	12
40	65	0.001196016678	12
41	66	0.001196016678	12
42	73	0.001196016678	59
43	73	0.001196016678	1
43	73	0.001196016678	0
44	73	0.001196016678	59
45	73	0.001196016678	0
46	74	0.001196016678	59
47	74	0.001196016678	1
47	74	0.001196016678	0
48	74	0.001196016678	59
49	74	0.001196016678	0
50	75	0.001196016678	59
51	75	0.001196016678	1
51	75	0.001196016678	0
52	75	0.001196016678	59
53	75	0.001196016678	0
54	76	0.001196016678	59
55	76	0.001196016678	1
55	76	0.001196016678	0
56	76	0.001196016678	59
57	76	0.001196016678	0
58	77	0.001196016678	59
59	77	0.001196016678	1
59	77	0.001196016678	0
60	77	0.001196016678	59
61	77	0.001196016678	0
62	78	0.001196016678	59
63	78	0.001196016678	1
63	78	0.001196016678	0
64	78	0.001196016678	59
65	78	0.001196016678	0
66	85	0.001246016678	1
66	87	0.001246016678	2
66	101	0.001792016678	1
66	101	0.001792016678	0
66	359	0.006354212345	1
66	360	0.006354212345	2
66	367	0.006900212345	1
66	367	0.006900212345	0
67	86	0.001246016678	1
67	88	0.001246016678	2
67	102	0.001792016678	1
67	102	0.001792016678	0
67	262	0.004546145633	1
67	263	0.004546145633	2
67	272	0.005092145633	1
67	272	0.005092145633	0
68	109	0.001792033356	59
68	249	0.004476128955	59
69	110	0.001792033356	59
69	196	0.003632107808	59
69	252	0.004476128955	59
69	284	0.00509217452	59
69	325	0.005976195667	59
69	372	0.006900229023	59
69	428	0.007864279057	59
70	111	0.001792033356	59
70	149	0.002408078921	59
70	189	0.003632095599	59
70	277	0.005092162311	59
70	332	0.005976207876	59
70	379	0.006900241232	59
71	116	0.001792045565	59
72	117	0.001792045565	59
72	250	0.004476128955	59
73	124	0.001862045565	1
73	125	0.001862045565	2
73	134	0.002408045565	1
73	134	0.002408045565	0
74	139	0.002408062243	59
74	190	0.003632095599	59
74	287	0.005092178989	59
74	380	0.006900241232	59
74	425	0.007864274588	59
75	140	0.002408062243	59
75	199	0.003632112277	59
75	278	0.005092162311	59
75	333	0.005976207876	59
75	426	0.007864274588	59
76	142	0.002408062243	1
76	192	0.003632095599	2
76	280	0.005092162311	3
76	328	0.005976195667	4
76	375	0.006900229023	5
76	421	0.007864262379	6
77	146	0.002408074452	59
77	285	0.00509217452	59
77	326	0.005976195667	59
77	382	0.006900245701	59
77	418	0.007864262379	59
78	147	0.002408074452	59
78	197	0.003632107808	59
78	251	0.004476128955	59
78	335	0.005976212345	59
78	373	0.006900229023	59
78	419	0.007864262379	59
79	176	0.003086078921	1
79	177	0.003086078921	2
79	184	0.003632078921	1
79	184	0.003632078921	0
80	225	0.003930112277	1
80	227	0.003930112277	2
80	241	0.004476112277	1
80	241	0.004476112277	0
80	405	0.007318245701	1
80	406	0.007318245701	2
80	413	0.007864245701	1
80	413	0.007864245701	0
81	226	0.003930112277	1
81	228	0.003930112277	2
81	242	0.004476112277	1
81	242	0.004476112277	0
81	312	0.005430178989	1
81	313	0.005430178989	2
81	320	0.005976178989	1
81	320	0.005976178989	0
82	257	0.004476141164	59

