file 13774 1595019231                                           
version 2
run Wireless01-6-20200717-17:53:50-13346
attr configname Wireless01
attr datetime 20200717-17:53:50
attr experiment Wireless01
attr inifile omnetpp.ini
attr iterationvars $name=WirelessA
attr iterationvarsf name=WirelessA-
attr measurement $name=WirelessA
attr network "${name=WirelessA, Wireless_3_1, Wireless_3_5, Wireless_3_10, Wireless_6_1,Wireless_6_5,Wireless_6_10,Wireless_12_1,Wireless_12_5,Wireless_12_10}"
attr processid 13346
attr repetition 6
attr replication #6
attr resultdir results
attr runnumber 6
attr seedset 6
itervar name WirelessA
param *.hostA.numApps 1
param *.hostA.app[0].typename "\"TDOAApp\""
param *.hostA.app[0].destAddresses "\"Broadcast\""
param *.hostA.app[0].destPort 5000
param *.hostA.app[0].localPort 6000
param *.hostA.app[0].isReceiver false
param *.hostA.app[0].Nome_arquivo "\"WirelessA.csv\""
param *.host*.numApps 1
param *.host*.app[0].typename "\"TDOAApp\""
param *.host*.app[0].localPort 5000
param *.host*.app[0].destPort 6000
param *.host*.app[0].destAddresses "\"hostA\""
param *.host*.app[0].isReceiver true
param *.host*.wlan[0].typename "\"WirelessInterface\""
param *.radioMedium.typename "\"ApskScalarRadioMedium\""
param *.radioMedium.backgroundNoise.power -90dBm
param *.radioMedium.mediumLimitCache.centerFrequency 2GHz
param *.host*.wlan[0].radio.typename "\"ApskScalarRadio\""
param *.host*.wlan[0].radio.centerFrequency 2GHz
param *.host*.wlan[0].radio.bandwidth 2MHz
param *.host*.wlan[0].radio.transmitter.power 1.4mW
param *.host*.wlan[0].radio.transmitter.preambleDuration 10us
param *.host*.wlan[0].radio.transmitter.headerLength 8B
param *.host*.wlan[0].radio.receiver.sensitivity -85dBm
param *.host*.wlan[0].radio.receiver.energyDetection -85dBm
param *.host*.wlan[0].radio.receiver.snirThreshold 4dB
param *.host*.wlan[0].mac.typename "\"CsmaCaMac\""
param *.host*.wlan[0].mac.ackTimeout 300us
param *.host*.wlan[0].mac.useAck true
param *.host*.wlan[0].mac.fullDuplex false
param *.host*.wlan[0].radio.receiver.ignoreInterference true
param *.host*.wlan[0].mac.headerLength 23B
param *.host*.**.bitrate 1Mbps
param *.host*.ipv4.arp.typename "\"GlobalArp\""
param **.ip.limitedBroadcast true

vector 0 WirelessA.hostA.wlan[0].radio radioMode:vector ETV
attr interpolationmode sample-hold
attr source radioModeChanged
attr title "Radio mode, vector"
vector 1 WirelessA.hostB.wlan[0].radio radioMode:vector ETV
attr interpolationmode sample-hold
attr source radioModeChanged
attr title "Radio mode, vector"
vector 2 WirelessA.hostC.wlan[0].radio radioMode:vector ETV
attr interpolationmode sample-hold
attr source radioModeChanged
attr title "Radio mode, vector"
vector 3 WirelessA.hostD.wlan[0].radio radioMode:vector ETV
attr interpolationmode sample-hold
attr source radioModeChanged
attr title "Radio mode, vector"
vector 4 WirelessA.hostA.wlan[0].radio receptionState:vector ETV
attr interpolationmode sample-hold
attr source receptionStateChanged
attr title "Radio reception state, vector"
vector 5 WirelessA.hostB.wlan[0].radio receptionState:vector ETV
attr interpolationmode sample-hold
attr source receptionStateChanged
attr title "Radio reception state, vector"
vector 6 WirelessA.hostC.wlan[0].radio receptionState:vector ETV
attr interpolationmode sample-hold
attr source receptionStateChanged
attr title "Radio reception state, vector"
vector 7 WirelessA.hostD.wlan[0].radio receptionState:vector ETV
attr interpolationmode sample-hold
attr source receptionStateChanged
attr title "Radio reception state, vector"
vector 8 WirelessA.hostA.udp packetSent:vector(packetBytes) ETV
attr interpolationmode none
attr source packetSent
attr title "packets sent, vector(packetBytes)"
vector 9 WirelessA.hostA.lo[0].lo rcvdPkFromHl:vector(packetBytes) ETV
attr interpolationmode none
attr source packetReceivedFromUpper
attr title "packets received from higher layer, vector(packetBytes)"
vector 10 WirelessA.hostA.lo[0].lo passedUpPk:vector(packetBytes) ETV
attr interpolationmode none
attr source packetSentToUpper
attr title "packets passed to higher layer, vector(packetBytes)"
vector 11 WirelessA.hostA.wlan[0].mac.queue packetPushed:vector(packetBytes) ETV
attr interpolationmode none
attr title "packet pushed, vector(packetBytes)"
vector 12 WirelessA.hostA.wlan[0].mac.queue queueLength:vector ETV
attr interpolationmode sample-hold
attr source "count(packetPushed) - count(packetPopped) - count(packetRemoved) - count(packetDropped)"
attr title "queue length, vector"
vector 13 WirelessA.hostA.wlan[0].mac.queue packetPopped:vector(packetBytes) ETV
attr interpolationmode none
attr title "packet popped, vector(packetBytes)"
vector 14 WirelessA.hostA.wlan[0].mac.queue queueingTime:vector ETV
attr interpolationmode none
attr source queueingTime(packetPopped)
attr title "queueing times, vector"
attr unit s
vector 15 WirelessA.hostA.udp packetReceived:vector(packetBytes) ETV
attr interpolationmode none
attr source packetReceived
attr title "packets received, vector(packetBytes)"
vector 16 WirelessA.hostA.udp droppedPkWrongPort:vector(count) ETV
attr interpolationmode none
attr source packetDropReasonIsNoPortFound(packetDropped)
attr title "packets dropped (wrong port), vector(count)"
vector 17 WirelessA.hostA.wlan[0].radio transmissionState:vector ETV
attr interpolationmode sample-hold
attr source transmissionStateChanged
attr title "Radio transmission state, vector"
vector 18 WirelessA.hostC.udp packetReceived:vector(packetBytes) ETV
attr interpolationmode none
attr source packetReceived
attr title "packets received, vector(packetBytes)"
vector 19 WirelessA.hostC.udp passedUpPk:vector(count) ETV
attr interpolationmode none
attr source packetSentToUpper
attr title "packets passed up, vector(count)"
vector 20 WirelessA.hostD.udp packetReceived:vector(packetBytes) ETV
attr interpolationmode none
attr source packetReceived
attr title "packets received, vector(packetBytes)"
vector 21 WirelessA.hostD.udp passedUpPk:vector(count) ETV
attr interpolationmode none
attr source packetSentToUpper
attr title "packets passed up, vector(count)"
vector 22 WirelessA.hostC.udp packetSent:vector(packetBytes) ETV
attr interpolationmode none
attr source packetSent
attr title "packets sent, vector(packetBytes)"
vector 23 WirelessA.hostD.udp packetSent:vector(packetBytes) ETV
attr interpolationmode none
attr source packetSent
attr title "packets sent, vector(packetBytes)"
vector 24 WirelessA.hostC.wlan[0].mac.queue packetPushed:vector(packetBytes) ETV
attr interpolationmode none
attr title "packet pushed, vector(packetBytes)"
vector 25 WirelessA.hostC.wlan[0].mac.queue queueLength:vector ETV
attr interpolationmode sample-hold
attr source "count(packetPushed) - count(packetPopped) - count(packetRemoved) - count(packetDropped)"
attr title "queue length, vector"
vector 26 WirelessA.hostC.wlan[0].mac.queue packetPopped:vector(packetBytes) ETV
attr interpolationmode none
attr title "packet popped, vector(packetBytes)"
vector 27 WirelessA.hostC.wlan[0].mac.queue queueingTime:vector ETV
attr interpolationmode none
attr source queueingTime(packetPopped)
attr title "queueing times, vector"
attr unit s
vector 28 WirelessA.hostD.wlan[0].mac.queue packetPushed:vector(packetBytes) ETV
attr interpolationmode none
attr title "packet pushed, vector(packetBytes)"
vector 29 WirelessA.hostD.wlan[0].mac.queue queueLength:vector ETV
attr interpolationmode sample-hold
attr source "count(packetPushed) - count(packetPopped) - count(packetRemoved) - count(packetDropped)"
attr title "queue length, vector"
vector 30 WirelessA.hostD.wlan[0].mac.queue packetPopped:vector(packetBytes) ETV
attr interpolationmode none
attr title "packet popped, vector(packetBytes)"
vector 31 WirelessA.hostD.wlan[0].mac.queue queueingTime:vector ETV
attr interpolationmode none
attr source queueingTime(packetPopped)
attr title "queueing times, vector"
attr unit s
vector 32 WirelessA.hostB.udp packetReceived:vector(packetBytes) ETV
attr interpolationmode none
attr source packetReceived
attr title "packets received, vector(packetBytes)"
vector 33 WirelessA.hostB.udp passedUpPk:vector(count) ETV
attr interpolationmode none
attr source packetSentToUpper
attr title "packets passed up, vector(count)"
vector 34 WirelessA.hostB.udp packetSent:vector(packetBytes) ETV
attr interpolationmode none
attr source packetSent
attr title "packets sent, vector(packetBytes)"
vector 35 WirelessA.hostB.wlan[0].mac.queue packetPushed:vector(packetBytes) ETV
attr interpolationmode none
attr title "packet pushed, vector(packetBytes)"
vector 36 WirelessA.hostB.wlan[0].mac.queue queueLength:vector ETV
attr interpolationmode sample-hold
attr source "count(packetPushed) - count(packetPopped) - count(packetRemoved) - count(packetDropped)"
attr title "queue length, vector"
vector 37 WirelessA.hostB.wlan[0].mac.queue packetPopped:vector(packetBytes) ETV
attr interpolationmode none
attr title "packet popped, vector(packetBytes)"
vector 38 WirelessA.hostB.wlan[0].mac.queue queueingTime:vector ETV
attr interpolationmode none
attr source queueingTime(packetPopped)
attr title "queueing times, vector"
attr unit s
vector 39 WirelessA.hostB.wlan[0].radio transmissionState:vector ETV
attr interpolationmode sample-hold
attr source transmissionStateChanged
attr title "Radio transmission state, vector"
vector 40 WirelessA.hostA.udp passedUpPk:vector(count) ETV
attr interpolationmode none
attr source packetSentToUpper
attr title "packets passed up, vector(count)"
vector 41 WirelessA.hostC.wlan[0].mac packetDropNotAddressedToUs:vector(packetBytes) ETV
attr interpolationmode none
attr source packetDropReasonIsNotAddressedToUs(packetDropped)
attr title "packet drop: not addressed to us, vector(packetBytes)"
vector 42 WirelessA.hostD.wlan[0].mac packetDropNotAddressedToUs:vector(packetBytes) ETV
attr interpolationmode none
attr source packetDropReasonIsNotAddressedToUs(packetDropped)
attr title "packet drop: not addressed to us, vector(packetBytes)"
vector 43 WirelessA.hostC.wlan[0].radio transmissionState:vector ETV
attr interpolationmode sample-hold
attr source transmissionStateChanged
attr title "Radio transmission state, vector"
vector 44 WirelessA.hostB.wlan[0].mac packetDropNotAddressedToUs:vector(packetBytes) ETV
attr interpolationmode none
attr source packetDropReasonIsNotAddressedToUs(packetDropped)
attr title "packet drop: not addressed to us, vector(packetBytes)"
vector 45 WirelessA.hostD.wlan[0].radio transmissionState:vector ETV
attr interpolationmode sample-hold
attr source transmissionStateChanged
attr title "Radio transmission state, vector"
0	10539 187 0 126 0 0.00360966782 11 0 3 22 56
1	10726 68 0 54 0 0.001532500346 5 0 3 7 17
2	10794 68 0 83 0 0.002517167474 5 0 3 7 17
3	10862 70 0 111 0 0.003381501038 5 0 3 7 17
4	10932 303 0 126 0 0.00360966782 15 0 3 17 35
5	11235 321 0 131 0 0.003610168166 15 0 3 26 62
6	11556 320 0 127 0 0.003609834602 15 0 3 26 62
7	11876 321 0 128 0 0.003609834602 15 0 3 26 62
8	12197 9 3 3 0 0 1 12 12 12 144
9	12206 10 11 11 0 0 1 32 32 32 1024
10	12216 11 11 11 0 0 1 32 32 32 1024
11	12227 11 12 12 0 0 1 59 59 59 3481
12	12238 20 12 12 0 0 2 0 1 1 1
13	12258 11 12 12 0 0 1 59 59 59 3481
14	12269 10 12 12 0 0 1 0 0 0 0
15	12279 83 14 115 0 0.00338166782 4 12 12 48 576
16	12362 10 14 14 0 0 1 1 1 1 1
17	12372 342 16 126 0.00031 0.00360966782 16 0 2 16 24
18	12714 24 28 28 0.000856166782 0.000856166782 1 12 12 12 144
19	12738 23 28 28 0.000856166782 0.000856166782 1 1 1 1 1
20	12761 24 29 29 0.000856166782 0.000856166782 1 12 12 12 144
21	12785 23 29 29 0.000856166782 0.000856166782 1 1 1 1 1
22	12808 24 32 32 0.000856166782 0.000856166782 1 12 12 12 144
23	12832 24 33 33 0.000856166782 0.000856166782 1 12 12 12 144
24	12856 24 36 36 0.000856166782 0.000856166782 1 59 59 59 3481
25	12880 46 36 36 0.000856166782 0.000856166782 2 0 1 1 1
26	12926 24 36 36 0.000856166782 0.000856166782 1 59 59 59 3481
27	12950 23 36 36 0.000856166782 0.000856166782 1 0 0 0 0
28	12973 24 37 37 0.000856166782 0.000856166782 1 59 59 59 3481
29	12997 46 37 37 0.000856166782 0.000856166782 2 0 1 1 1
30	13043 24 37 37 0.000856166782 0.000856166782 1 59 59 59 3481
31	13067 23 37 37 0.000856166782 0.000856166782 1 0 0 0 0
32	13090 24 41 41 0.000856500346 0.000856500346 1 12 12 12 144
33	13114 23 41 41 0.000856500346 0.000856500346 1 1 1 1 1
34	13137 24 43 43 0.000856500346 0.000856500346 1 12 12 12 144
35	13161 24 45 45 0.000856500346 0.000856500346 1 59 59 59 3481
36	13185 46 45 45 0.000856500346 0.000856500346 2 0 1 1 1
37	13231 24 45 45 0.000856500346 0.000856500346 1 59 59 59 3481
38	13255 23 45 45 0.000856500346 0.000856500346 1 0 0 0 0
39	13278 92 49 54 0.000986500346 0.001532500346 4 0 2 4 6
40	13370 69 58 115 0.001533000692 0.00338166782 3 1 3 6 14
41	13439 49 61 118 0.001533027757 0.003381736903 2 59 59 118 6962
42	13488 48 63 90 0.001533167474 0.002517403339 2 59 59 118 6962
43	13536 92 78 83 0.001971167474 0.002517167474 4 0 2 4 6
44	13628 49 92 120 0.002517694885 0.003382168166 2 59 59 118 6962
45	13677 96 106 111 0.002835501038 0.003381501038 4 0 2 4 6

